<?xml version="1.0" encoding="UTF-8"?>

<!-- generated on 2025-09-17 21:53:48 by Eclipse SUMO GUI Version 1.24.0
<sumoConfiguration xmlns:xsi="http://www.w3.org/2001/XMLSchema-instance" xsi:noNamespaceSchemaLocation="http://sumo.dlr.de/xsd/sumoConfiguration.xsd">

    <input>
        <net-file value="osm.net.xml.gz"/>
        <route-files value="osm.bus.trips.xml,osm.motorcycle.trips.xml,osm.passenger.trips.xml,osm.truck.trips.xml"/>
        <additional-files value="osm.poly.xml.gz,output.add.xml"/>
    </input>

    <output>
        <tripinfo-output value="tripinfos.xml"/>
        <statistic-output value="stats.xml"/>
    </output>

    <processing>
        <ignore-route-errors value="true"/>
        <tls.actuated.jam-threshold value="30"/>
    </processing>

    <routing>
        <device.rerouting.adaptation-steps value="18"/>
        <device.rerouting.adaptation-interval value="10"/>
    </routing>

    <report>
        <verbose value="true"/>
        <duration-log.statistics value="true"/>
        <no-step-log value="true"/>
    </report>

    <gui_only>
        <gui-settings-file value="osm.view.xml"/>
    </gui_only>

</sumoConfiguration>
-->

<tripinfos xmlns:xsi="http://www.w3.org/2001/XMLSchema-instance" xsi:noNamespaceSchemaLocation="http://sumo.dlr.de/xsd/tripinfo_file.xsd">
    <tripinfo id="motorcycle0" depart="0.00" departLane="651079990_0" departPos="2.30" departSpeed="11.78" departDelay="0.00" arrival="51.00" arrivalLane="683268248#0_0" arrivalPos="433.31" arrivalSpeed="15.60" duration="51.00" routeLength="608.63" waitingTime="2.00" waitingCount="1" stopTime="0.00" timeLoss="11.06" rerouteNo="1" devices="tripinfo_motorcycle0 routing_motorcycle0" vType="motorcycle_motorcycle" speedFactor="1.06" vaporized=""/>
    <tripinfo id="bus0" depart="0.00" departLane="580815653#0_0" departPos="12.10" departSpeed="16.67" departDelay="0.00" arrival="67.00" arrivalLane="624604434_0" arrivalPos="128.50" arrivalSpeed="16.64" duration="67.00" routeLength="851.11" waitingTime="3.00" waitingCount="1" stopTime="0.00" timeLoss="15.66" rerouteNo="1" devices="tripinfo_bus0 routing_bus0" vType="bus_bus" speedFactor="1.00" vaporized=""/>
    <tripinfo id="veh1" depart="42.00" departLane="870991319#0_0" departPos="5.10" departSpeed="18.05" departDelay="0.03" arrival="69.00" arrivalLane="366952449#0_0" arrivalPos="165.43" arrivalSpeed="18.04" duration="27.00" routeLength="439.61" waitingTime="0.00" waitingCount="0" stopTime="0.00" timeLoss="2.09" rerouteNo="1" devices="tripinfo_veh1 routing_veh1" vType="veh_passenger" speedFactor="1.08" vaporized=""/>
    <tripinfo id="veh0" depart="0.00" departLane="158466192#0_1" departPos="5.10" departSpeed="0.00" departDelay="0.00" arrival="70.00" arrivalLane="683268248#0_0" arrivalPos="433.31" arrivalSpeed="15.74" duration="70.00" routeLength="979.95" waitingTime="0.00" waitingCount="0" stopTime="0.00" timeLoss="9.71" rerouteNo="1" devices="tripinfo_veh0 routing_veh0" vType="veh_passenger" speedFactor="1.01" vaporized=""/>
    <tripinfo id="truck0" depart="0.00" departLane="-678188678_0" departPos="7.20" departSpeed="8.46" departDelay="0.00" arrival="104.00" arrivalLane="683268248#0_0" arrivalPos="433.31" arrivalSpeed="16.64" duration="104.00" routeLength="1083.44" waitingTime="1.00" waitingCount="1" stopTime="0.00" timeLoss="18.76" rerouteNo="1" devices="tripinfo_truck0 routing_truck0" vType="truck_truck" speedFactor="1.02" vaporized=""/>
    <tripinfo id="truck1" depart="63.00" departLane="870991319#0_0" departPos="7.20" departSpeed="15.26" departDelay="0.05" arrival="129.00" arrivalLane="683268248#0_0" arrivalPos="433.31" arrivalSpeed="14.75" duration="66.00" routeLength="713.97" waitingTime="7.00" waitingCount="1" stopTime="0.00" timeLoss="18.95" rerouteNo="1" devices="tripinfo_truck1 routing_truck1" vType="truck_truck" speedFactor="0.92" vaporized=""/>
    <tripinfo id="veh2" depart="84.00" departLane="366949696_0" departPos="5.10" departSpeed="16.90" departDelay="0.06" arrival="139.00" arrivalLane="427550891#0_0" arrivalPos="352.59" arrivalSpeed="8.41" duration="55.00" routeLength="484.59" waitingTime="0.00" waitingCount="0" stopTime="0.00" timeLoss="4.63" rerouteNo="0" devices="tripinfo_veh2 routing_veh2" vType="veh_passenger" speedFactor="1.01" vaporized=""/>
    <tripinfo id="veh2.1" depart="85.00" departLane="366949696_0" departPos="5.10" departSpeed="14.46" departDelay="1.06" arrival="142.00" arrivalLane="427550891#0_0" arrivalPos="352.59" arrivalSpeed="7.96" duration="57.00" routeLength="484.59" waitingTime="0.00" waitingCount="0" stopTime="0.00" timeLoss="6.52" rerouteNo="0" devices="tripinfo_veh2.1 routing_veh2.1" vType="veh_passenger" speedFactor="1.03" vaporized=""/>
    <tripinfo id="veh2.2" depart="86.00" departLane="366949696_0" departPos="5.10" departSpeed="12.22" departDelay="2.06" arrival="144.00" arrivalLane="427550891#0_0" arrivalPos="352.59" arrivalSpeed="8.46" duration="58.00" routeLength="484.59" waitingTime="0.00" waitingCount="0" stopTime="0.00" timeLoss="9.39" rerouteNo="0" devices="tripinfo_veh2.2 routing_veh2.2" vType="veh_passenger" speedFactor="1.06" vaporized=""/>
    <tripinfo id="veh2.3" depart="87.00" departLane="366949696_0" departPos="5.10" departSpeed="8.70" departDelay="3.06" arrival="150.00" arrivalLane="427550891#0_0" arrivalPos="352.59" arrivalSpeed="7.76" duration="63.00" routeLength="484.59" waitingTime="0.00" waitingCount="0" stopTime="0.00" timeLoss="8.64" rerouteNo="0" devices="tripinfo_veh2.3 routing_veh2.3" vType="veh_passenger" speedFactor="0.96" vaporized=""/>
    <tripinfo id="veh2.4" depart="88.00" departLane="366949696_0" departPos="5.10" departSpeed="4.44" departDelay="4.06" arrival="154.00" arrivalLane="427550891#0_0" arrivalPos="352.59" arrivalSpeed="7.40" duration="66.00" routeLength="484.59" waitingTime="0.00" waitingCount="0" stopTime="0.00" timeLoss="10.48" rerouteNo="0" devices="tripinfo_veh2.4 routing_veh2.4" vType="veh_passenger" speedFactor="0.93" vaporized=""/>
    <tripinfo id="veh2.5" depart="90.00" departLane="366949696_0" departPos="5.10" departSpeed="3.94" departDelay="6.06" arrival="161.00" arrivalLane="427550891#0_0" arrivalPos="352.59" arrivalSpeed="7.21" duration="71.00" routeLength="484.59" waitingTime="0.00" waitingCount="0" stopTime="0.00" timeLoss="11.41" rerouteNo="0" devices="tripinfo_veh2.5 routing_veh2.5" vType="veh_passenger" speedFactor="0.87" vaporized=""/>
    <tripinfo id="veh2.6" depart="93.00" departLane="366949696_0" departPos="5.10" departSpeed="5.79" departDelay="9.06" arrival="163.00" arrivalLane="427550891#0_0" arrivalPos="352.59" arrivalSpeed="7.86" duration="70.00" routeLength="484.59" waitingTime="0.00" waitingCount="0" stopTime="0.00" timeLoss="23.17" rerouteNo="0" devices="tripinfo_veh2.6 routing_veh2.6" vType="veh_passenger" speedFactor="1.10" vaporized=""/>
    <tripinfo id="veh2.7" depart="95.00" departLane="366949696_0" departPos="5.10" departSpeed="5.01" departDelay="11.06" arrival="166.00" arrivalLane="427550891#0_0" arrivalPos="352.59" arrivalSpeed="7.82" duration="71.00" routeLength="484.59" waitingTime="0.00" waitingCount="0" stopTime="0.00" timeLoss="19.56" rerouteNo="0" devices="tripinfo_veh2.7 routing_veh2.7" vType="veh_passenger" speedFactor="1.01" vaporized=""/>
    <tripinfo id="veh2.8" depart="97.00" departLane="366949696_0" departPos="5.10" departSpeed="3.87" departDelay="13.06" arrival="168.00" arrivalLane="427550891#0_0" arrivalPos="352.59" arrivalSpeed="8.09" duration="71.00" routeLength="484.59" waitingTime="0.00" waitingCount="0" stopTime="0.00" timeLoss="23.23" rerouteNo="0" devices="tripinfo_veh2.8 routing_veh2.8" vType="veh_passenger" speedFactor="1.10" vaporized=""/>
    <tripinfo id="veh2.9" depart="99.00" departLane="366949696_0" departPos="5.10" departSpeed="0.76" departDelay="15.06" arrival="170.00" arrivalLane="427550891#0_0" arrivalPos="352.59" arrivalSpeed="6.92" duration="71.00" routeLength="484.59" waitingTime="0.00" waitingCount="0" stopTime="0.00" timeLoss="15.53" rerouteNo="0" devices="tripinfo_veh2.9 routing_veh2.9" vType="veh_passenger" speedFactor="0.92" vaporized=""/>
    <tripinfo id="veh2.10" depart="103.00" departLane="366949696_0" departPos="5.10" departSpeed="4.68" departDelay="19.06" arrival="172.00" arrivalLane="427550891#0_0" arrivalPos="352.59" arrivalSpeed="8.95" duration="69.00" routeLength="484.59" waitingTime="0.00" waitingCount="0" stopTime="0.00" timeLoss="24.95" rerouteNo="0" devices="tripinfo_veh2.10 routing_veh2.10" vType="veh_passenger" speedFactor="1.18" vaporized=""/>
    <tripinfo id="veh2.11" depart="105.00" departLane="366949696_0" departPos="5.10" departSpeed="3.77" departDelay="21.06" arrival="175.00" arrivalLane="427550891#0_0" arrivalPos="352.59" arrivalSpeed="8.36" duration="70.00" routeLength="484.59" waitingTime="0.00" waitingCount="0" stopTime="0.00" timeLoss="18.34" rerouteNo="0" devices="tripinfo_veh2.11 routing_veh2.11" vType="veh_passenger" speedFactor="1.00" vaporized=""/>
    <tripinfo id="veh2.12" depart="107.00" departLane="366949696_0" departPos="5.10" departSpeed="0.49" departDelay="23.06" arrival="177.00" arrivalLane="427550891#0_0" arrivalPos="352.59" arrivalSpeed="7.32" duration="70.00" routeLength="484.59" waitingTime="0.00" waitingCount="0" stopTime="0.00" timeLoss="17.57" rerouteNo="0" devices="tripinfo_veh2.12 routing_veh2.12" vType="veh_passenger" speedFactor="0.99" vaporized=""/>
    <tripinfo id="veh2.13" depart="111.00" departLane="366949696_0" departPos="5.10" departSpeed="4.82" departDelay="27.06" arrival="179.00" arrivalLane="427550891#0_0" arrivalPos="352.59" arrivalSpeed="8.17" duration="68.00" routeLength="484.59" waitingTime="0.00" waitingCount="0" stopTime="0.00" timeLoss="19.85" rerouteNo="0" devices="tripinfo_veh2.13 routing_veh2.13" vType="veh_passenger" speedFactor="1.07" vaporized=""/>
    <tripinfo id="veh2.14" depart="113.00" departLane="366949696_0" departPos="5.10" departSpeed="5.14" departDelay="29.06" arrival="182.00" arrivalLane="427550891#0_0" arrivalPos="352.59" arrivalSpeed="7.27" duration="69.00" routeLength="484.59" waitingTime="0.00" waitingCount="0" stopTime="0.00" timeLoss="13.76" rerouteNo="0" devices="tripinfo_veh2.14 routing_veh2.14" vType="veh_passenger" speedFactor="0.94" vaporized=""/>
    <tripinfo id="veh2.15" depart="115.00" departLane="366949696_0" departPos="5.10" departSpeed="4.76" departDelay="31.06" arrival="184.00" arrivalLane="427550891#0_0" arrivalPos="352.59" arrivalSpeed="8.14" duration="69.00" routeLength="484.59" waitingTime="0.00" waitingCount="0" stopTime="0.00" timeLoss="22.06" rerouteNo="0" devices="tripinfo_veh2.15 routing_veh2.15" vType="veh_passenger" speedFactor="1.10" vaporized=""/>
    <tripinfo id="veh2.16" depart="117.00" departLane="366949696_0" departPos="5.10" departSpeed="3.36" departDelay="33.06" arrival="186.00" arrivalLane="427550891#0_0" arrivalPos="352.59" arrivalSpeed="8.37" duration="69.00" routeLength="484.59" waitingTime="0.00" waitingCount="0" stopTime="0.00" timeLoss="18.67" rerouteNo="0" devices="tripinfo_veh2.16 routing_veh2.16" vType="veh_passenger" speedFactor="1.03" vaporized=""/>
    <tripinfo id="veh3" depart="126.00" departLane="651079990_0" departPos="5.10" departSpeed="11.15" departDelay="0.09" arrival="187.00" arrivalLane="683268248#0_0" arrivalPos="433.31" arrivalSpeed="15.94" duration="61.00" routeLength="605.83" waitingTime="12.00" waitingCount="1" stopTime="0.00" timeLoss="18.79" rerouteNo="1" devices="tripinfo_veh3 routing_veh3" vType="veh_passenger" speedFactor="1.00" vaporized=""/>
    <tripinfo id="veh2.17" depart="120.00" departLane="366949696_0" departPos="5.10" departSpeed="5.41" departDelay="36.06" arrival="188.00" arrivalLane="427550891#0_0" arrivalPos="352.59" arrivalSpeed="7.27" duration="68.00" routeLength="484.59" waitingTime="0.00" waitingCount="0" stopTime="0.00" timeLoss="18.04" rerouteNo="0" devices="tripinfo_veh2.17 routing_veh2.17" vType="veh_passenger" speedFactor="1.02" vaporized=""/>
    <tripinfo id="veh2.18" depart="122.00" departLane="366949696_0" departPos="5.10" departSpeed="4.77" departDelay="38.06" arrival="190.00" arrivalLane="427550891#0_0" arrivalPos="352.59" arrivalSpeed="8.41" duration="68.00" routeLength="484.59" waitingTime="0.00" waitingCount="0" stopTime="0.00" timeLoss="19.41" rerouteNo="0" devices="tripinfo_veh2.18 routing_veh2.18" vType="veh_passenger" speedFactor="1.06" vaporized=""/>
    <tripinfo id="veh3.1" depart="127.00" departLane="651079990_0" departPos="5.10" departSpeed="6.76" departDelay="1.09" arrival="190.00" arrivalLane="683268248#0_0" arrivalPos="433.31" arrivalSpeed="16.08" duration="63.00" routeLength="605.83" waitingTime="11.00" waitingCount="1" stopTime="0.00" timeLoss="19.32" rerouteNo="1" devices="tripinfo_veh3.1 routing_veh3.1" vType="veh_passenger" speedFactor="0.97" vaporized=""/>
    <tripinfo id="veh2.19" depart="124.00" departLane="366949696_0" departPos="5.10" departSpeed="4.04" departDelay="40.06" arrival="192.00" arrivalLane="427550891#0_0" arrivalPos="352.59" arrivalSpeed="9.58" duration="68.00" routeLength="484.59" waitingTime="0.00" waitingCount="0" stopTime="0.00" timeLoss="23.56" rerouteNo="0" devices="tripinfo_veh2.19 routing_veh2.19" vType="veh_passenger" speedFactor="1.15" vaporized=""/>
    <tripinfo id="veh3.2" depart="129.00" departLane="651079990_0" departPos="5.10" departSpeed="6.56" departDelay="3.09" arrival="193.00" arrivalLane="683268248#0_0" arrivalPos="433.31" arrivalSpeed="14.93" duration="64.00" routeLength="605.83" waitingTime="9.00" waitingCount="1" stopTime="0.00" timeLoss="20.35" rerouteNo="1" devices="tripinfo_veh3.2 routing_veh3.2" vType="veh_passenger" speedFactor="0.96" vaporized=""/>
    <tripinfo id="bus1" depart="126.00" departLane="870991319#0_0" departPos="12.10" departSpeed="16.67" departDelay="0.09" arrival="195.00" arrivalLane="683268248#0_1" arrivalPos="433.31" arrivalSpeed="16.19" duration="69.00" routeLength="709.07" waitingTime="13.00" waitingCount="1" stopTime="0.00" timeLoss="25.99" rerouteNo="1" devices="tripinfo_bus1 routing_bus1" vType="bus_bus" speedFactor="1.00" vaporized=""/>
    <tripinfo id="veh2.20" depart="126.00" departLane="366949696_0" departPos="5.10" departSpeed="3.04" departDelay="42.06" arrival="195.00" arrivalLane="427550891#0_0" arrivalPos="352.59" arrivalSpeed="8.57" duration="69.00" routeLength="484.59" waitingTime="0.00" waitingCount="0" stopTime="0.00" timeLoss="18.37" rerouteNo="0" devices="tripinfo_veh2.20 routing_veh2.20" vType="veh_passenger" speedFactor="1.03" vaporized=""/>
    <tripinfo id="veh3.3" depart="131.00" departLane="651079990_0" departPos="5.10" departSpeed="6.56" departDelay="5.09" arrival="195.00" arrivalLane="683268248#0_0" arrivalPos="433.31" arrivalSpeed="16.30" duration="64.00" routeLength="605.83" waitingTime="9.00" waitingCount="1" stopTime="0.00" timeLoss="20.95" rerouteNo="1" devices="tripinfo_veh3.3 routing_veh3.3" vType="veh_passenger" speedFactor="0.98" vaporized=""/>
    <tripinfo id="veh3.4" depart="133.00" departLane="651079990_0" departPos="5.10" departSpeed="6.04" departDelay="7.09" arrival="197.00" arrivalLane="683268248#0_0" arrivalPos="433.31" arrivalSpeed="17.13" duration="64.00" routeLength="605.83" waitingTime="10.00" waitingCount="1" stopTime="0.00" timeLoss="25.46" rerouteNo="1" devices="tripinfo_veh3.4 routing_veh3.4" vType="veh_passenger" speedFactor="1.10" vaporized=""/>
    <tripinfo id="veh3.5" depart="135.00" departLane="651079990_0" departPos="5.10" departSpeed="7.52" departDelay="9.09" arrival="198.00" arrivalLane="683268248#0_1" arrivalPos="433.31" arrivalSpeed="16.18" duration="63.00" routeLength="605.83" waitingTime="8.00" waitingCount="1" stopTime="0.00" timeLoss="22.34" rerouteNo="1" devices="tripinfo_veh3.5 routing_veh3.5" vType="veh_passenger" speedFactor="1.04" vaporized=""/>
    <tripinfo id="veh3.6" depart="137.00" departLane="651079990_0" departPos="5.10" departSpeed="9.57" departDelay="11.09" arrival="201.00" arrivalLane="683268248#0_0" arrivalPos="433.31" arrivalSpeed="15.88" duration="64.00" routeLength="605.83" waitingTime="7.00" waitingCount="1" stopTime="0.00" timeLoss="21.52" rerouteNo="1" devices="tripinfo_veh3.6 routing_veh3.6" vType="veh_passenger" speedFactor="1.00" vaporized=""/>
    <tripinfo id="veh3.7" depart="138.00" departLane="651079990_0" departPos="5.10" departSpeed="4.98" departDelay="12.09" arrival="201.00" arrivalLane="683268248#0_1" arrivalPos="433.31" arrivalSpeed="17.34" duration="63.00" routeLength="605.83" waitingTime="7.00" waitingCount="1" stopTime="0.00" timeLoss="24.02" rerouteNo="1" devices="tripinfo_veh3.7 routing_veh3.7" vType="veh_passenger" speedFactor="1.10" vaporized=""/>
    <tripinfo id="veh2.21" depart="129.00" departLane="366949696_0" departPos="5.10" departSpeed="6.55" departDelay="45.06" arrival="204.00" arrivalLane="427550891#0_0" arrivalPos="352.59" arrivalSpeed="6.30" duration="75.00" routeLength="484.59" waitingTime="0.00" waitingCount="0" stopTime="0.00" timeLoss="12.27" rerouteNo="0" devices="tripinfo_veh2.21 routing_veh2.21" vType="veh_passenger" speedFactor="0.82" vaporized=""/>
    <tripinfo id="veh2.22" depart="131.00" departLane="366949696_0" departPos="5.10" departSpeed="5.68" departDelay="47.06" arrival="206.00" arrivalLane="427550891#0_0" arrivalPos="352.59" arrivalSpeed="8.89" duration="75.00" routeLength="484.59" waitingTime="0.00" waitingCount="0" stopTime="0.00" timeLoss="28.27" rerouteNo="0" devices="tripinfo_veh2.22 routing_veh2.22" vType="veh_passenger" speedFactor="1.12" vaporized=""/>
    <tripinfo id="veh3.9" depart="143.00" departLane="651079990_0" departPos="5.10" departSpeed="6.90" departDelay="17.09" arrival="206.00" arrivalLane="683268248#0_1" arrivalPos="433.31" arrivalSpeed="17.52" duration="63.00" routeLength="605.83" waitingTime="5.00" waitingCount="1" stopTime="0.00" timeLoss="24.13" rerouteNo="1" devices="tripinfo_veh3.9 routing_veh3.9" vType="veh_passenger" speedFactor="1.09" vaporized=""/>
    <tripinfo id="veh2.23" depart="133.00" departLane="366949696_0" departPos="5.10" departSpeed="5.31" departDelay="49.06" arrival="208.00" arrivalLane="427550891#0_0" arrivalPos="352.59" arrivalSpeed="8.26" duration="75.00" routeLength="484.59" waitingTime="0.00" waitingCount="0" stopTime="0.00" timeLoss="23.60" rerouteNo="0" devices="tripinfo_veh2.23 routing_veh2.23" vType="veh_passenger" speedFactor="1.01" vaporized=""/>
    <tripinfo id="veh2.24" depart="135.00" departLane="366949696_0" departPos="5.10" departSpeed="5.67" departDelay="51.06" arrival="210.00" arrivalLane="427550891#0_0" arrivalPos="352.59" arrivalSpeed="7.77" duration="75.00" routeLength="484.59" waitingTime="0.00" waitingCount="0" stopTime="0.00" timeLoss="24.52" rerouteNo="0" devices="tripinfo_veh2.24 routing_veh2.24" vType="veh_passenger" speedFactor="1.03" vaporized=""/>
    <tripinfo id="veh3.8" depart="140.00" departLane="651079990_0" departPos="5.10" departSpeed="2.76" departDelay="14.09" arrival="211.00" arrivalLane="683268248#0_0" arrivalPos="433.31" arrivalSpeed="13.63" duration="71.00" routeLength="605.83" waitingTime="6.00" waitingCount="1" stopTime="0.00" timeLoss="20.19" rerouteNo="1" devices="tripinfo_veh3.8 routing_veh3.8" vType="veh_passenger" speedFactor="0.83" vaporized=""/>
    <tripinfo id="veh3.11" depart="147.00" departLane="651079990_0" departPos="5.10" departSpeed="7.24" departDelay="21.09" arrival="211.00" arrivalLane="683268248#0_1" arrivalPos="433.31" arrivalSpeed="17.33" duration="64.00" routeLength="605.83" waitingTime="6.00" waitingCount="1" stopTime="0.00" timeLoss="23.98" rerouteNo="1" devices="tripinfo_veh3.11 routing_veh3.11" vType="veh_passenger" speedFactor="1.07" vaporized=""/>
    <tripinfo id="veh2.25" depart="137.00" departLane="366949696_0" departPos="5.10" departSpeed="6.11" departDelay="53.06" arrival="212.00" arrivalLane="427550891#0_0" arrivalPos="352.59" arrivalSpeed="8.75" duration="75.00" routeLength="484.59" waitingTime="0.00" waitingCount="0" stopTime="0.00" timeLoss="26.58" rerouteNo="0" devices="tripinfo_veh2.25 routing_veh2.25" vType="veh_passenger" speedFactor="1.07" vaporized=""/>
    <tripinfo id="veh3.10" depart="145.00" departLane="651079990_0" departPos="5.10" departSpeed="8.22" departDelay="19.09" arrival="212.00" arrivalLane="683268248#0_0" arrivalPos="433.31" arrivalSpeed="14.66" duration="67.00" routeLength="605.83" waitingTime="6.00" waitingCount="1" stopTime="0.00" timeLoss="23.71" rerouteNo="1" devices="tripinfo_veh3.10 routing_veh3.10" vType="veh_passenger" speedFactor="0.97" vaporized=""/>
    <tripinfo id="veh3.12" depart="149.00" departLane="651079990_0" departPos="5.10" departSpeed="6.23" departDelay="23.09" arrival="213.00" arrivalLane="683268248#0_1" arrivalPos="433.31" arrivalSpeed="17.01" duration="64.00" routeLength="605.83" waitingTime="5.00" waitingCount="1" stopTime="0.00" timeLoss="24.06" rerouteNo="1" devices="tripinfo_veh3.12 routing_veh3.12" vType="veh_passenger" speedFactor="1.07" vaporized=""/>
    <tripinfo id="veh2.26" depart="139.00" departLane="366949696_0" departPos="5.10" departSpeed="6.32" departDelay="55.06" arrival="215.00" arrivalLane="427550891#0_0" arrivalPos="352.59" arrivalSpeed="7.56" duration="76.00" routeLength="484.59" waitingTime="0.00" waitingCount="0" stopTime="0.00" timeLoss="21.75" rerouteNo="0" devices="tripinfo_veh2.26 routing_veh2.26" vType="veh_passenger" speedFactor="0.96" vaporized=""/>
    <tripinfo id="veh2.27" depart="141.00" departLane="366949696_0" departPos="5.10" departSpeed="6.47" departDelay="57.06" arrival="217.00" arrivalLane="427550891#0_0" arrivalPos="352.59" arrivalSpeed="7.40" duration="76.00" routeLength="484.59" waitingTime="0.00" waitingCount="0" stopTime="0.00" timeLoss="26.22" rerouteNo="0" devices="tripinfo_veh2.27 routing_veh2.27" vType="veh_passenger" speedFactor="1.04" vaporized=""/>
    <tripinfo id="veh3.15" depart="155.00" departLane="651079990_0" departPos="5.10" departSpeed="8.03" departDelay="29.09" arrival="218.00" arrivalLane="683268248#0_1" arrivalPos="433.31" arrivalSpeed="17.94" duration="63.00" routeLength="605.83" waitingTime="4.00" waitingCount="1" stopTime="0.00" timeLoss="26.11" rerouteNo="1" devices="tripinfo_veh3.15 routing_veh3.15" vType="veh_passenger" speedFactor="1.15" vaporized=""/>
    <tripinfo id="veh2.28" depart="143.00" departLane="366949696_0" departPos="5.10" departSpeed="6.94" departDelay="59.06" arrival="219.00" arrivalLane="427550891#0_0" arrivalPos="352.59" arrivalSpeed="10.10" duration="76.00" routeLength="484.59" waitingTime="0.00" waitingCount="0" stopTime="0.00" timeLoss="33.39" rerouteNo="0" devices="tripinfo_veh2.28 routing_veh2.28" vType="veh_passenger" speedFactor="1.23" vaporized=""/>
    <tripinfo id="veh3.13" depart="151.00" departLane="651079990_0" departPos="5.10" departSpeed="7.06" departDelay="25.09" arrival="219.00" arrivalLane="683268248#0_0" arrivalPos="433.31" arrivalSpeed="14.77" duration="68.00" routeLength="605.83" waitingTime="4.00" waitingCount="1" stopTime="0.00" timeLoss="21.75" rerouteNo="1" devices="tripinfo_veh3.13 routing_veh3.13" vType="veh_passenger" speedFactor="0.91" vaporized=""/>
    <tripinfo id="veh3.14" depart="153.00" departLane="651079990_0" departPos="5.10" departSpeed="8.08" departDelay="27.09" arrival="220.00" arrivalLane="683268248#0_1" arrivalPos="433.31" arrivalSpeed="16.16" duration="67.00" routeLength="605.83" waitingTime="4.00" waitingCount="1" stopTime="0.00" timeLoss="24.53" rerouteNo="1" devices="tripinfo_veh3.14 routing_veh3.14" vType="veh_passenger" speedFactor="1.00" vaporized=""/>
    <tripinfo id="veh2.29" depart="145.00" departLane="366949696_0" departPos="5.10" departSpeed="7.24" departDelay="61.06" arrival="221.00" arrivalLane="427550891#0_0" arrivalPos="352.59" arrivalSpeed="7.81" duration="76.00" routeLength="484.59" waitingTime="0.00" waitingCount="0" stopTime="0.00" timeLoss="25.20" rerouteNo="0" devices="tripinfo_veh2.29 routing_veh2.29" vType="veh_passenger" speedFactor="1.01" vaporized=""/>
    <tripinfo id="veh2.30" depart="147.00" departLane="366949696_0" departPos="5.10" departSpeed="7.45" departDelay="63.06" arrival="223.00" arrivalLane="427550891#0_0" arrivalPos="352.59" arrivalSpeed="8.61" duration="76.00" routeLength="484.59" waitingTime="0.00" waitingCount="0" stopTime="0.00" timeLoss="29.90" rerouteNo="0" devices="tripinfo_veh2.30 routing_veh2.30" vType="veh_passenger" speedFactor="1.12" vaporized=""/>
    <tripinfo id="veh2.31" depart="149.00" departLane="366949696_0" departPos="5.10" departSpeed="7.54" departDelay="65.06" arrival="225.00" arrivalLane="427550891#0_0" arrivalPos="352.59" arrivalSpeed="8.14" duration="76.00" routeLength="484.59" waitingTime="0.00" waitingCount="0" stopTime="0.00" timeLoss="25.59" rerouteNo="0" devices="tripinfo_veh2.31 routing_veh2.31" vType="veh_passenger" speedFactor="1.02" vaporized=""/>
    <tripinfo id="veh3.17" depart="158.00" departLane="651079990_0" departPos="5.10" departSpeed="3.33" departDelay="32.09" arrival="225.00" arrivalLane="683268248#0_1" arrivalPos="433.31" arrivalSpeed="17.05" duration="67.00" routeLength="605.83" waitingTime="4.00" waitingCount="1" stopTime="0.00" timeLoss="26.97" rerouteNo="1" devices="tripinfo_veh3.17 routing_veh3.17" vType="veh_passenger" speedFactor="1.06" vaporized=""/>
    <tripinfo id="veh2.32" depart="151.00" departLane="366949696_0" departPos="5.10" departSpeed="2.69" departDelay="67.06" arrival="227.00" arrivalLane="427550891#0_0" arrivalPos="352.59" arrivalSpeed="8.09" duration="76.00" routeLength="484.59" waitingTime="0.00" waitingCount="0" stopTime="0.00" timeLoss="25.04" rerouteNo="0" devices="tripinfo_veh2.32 routing_veh2.32" vType="veh_passenger" speedFactor="1.00" vaporized=""/>
    <tripinfo id="veh3.20" depart="166.00" departLane="651079990_0" departPos="5.10" departSpeed="0.62" departDelay="40.09" arrival="228.00" arrivalLane="683268248#0_1" arrivalPos="433.31" arrivalSpeed="20.20" duration="62.00" routeLength="605.83" waitingTime="1.00" waitingCount="1" stopTime="0.00" timeLoss="27.72" rerouteNo="1" devices="tripinfo_veh3.20 routing_veh3.20" vType="veh_passenger" speedFactor="1.24" vaporized=""/>
    <tripinfo id="veh3.16" depart="157.00" departLane="651079990_0" departPos="5.10" departSpeed="7.78" departDelay="31.09" arrival="229.00" arrivalLane="683268248#0_0" arrivalPos="433.31" arrivalSpeed="12.79" duration="72.00" routeLength="605.83" waitingTime="4.00" waitingCount="1" stopTime="0.00" timeLoss="21.41" rerouteNo="1" devices="tripinfo_veh3.16 routing_veh3.16" vType="veh_passenger" speedFactor="0.84" vaporized=""/>
    <tripinfo id="veh2.33" depart="154.00" departLane="366949696_0" departPos="5.10" departSpeed="5.17" departDelay="70.06" arrival="231.00" arrivalLane="427550891#0_0" arrivalPos="352.59" arrivalSpeed="6.79" duration="77.00" routeLength="484.59" waitingTime="0.00" waitingCount="0" stopTime="0.00" timeLoss="22.67" rerouteNo="0" devices="tripinfo_veh2.33 routing_veh2.33" vType="veh_passenger" speedFactor="0.95" vaporized=""/>
    <tripinfo id="veh3.18" depart="161.00" departLane="651079990_0" departPos="5.10" departSpeed="5.18" departDelay="35.09" arrival="231.00" arrivalLane="683268248#0_0" arrivalPos="433.31" arrivalSpeed="16.87" duration="70.00" routeLength="605.83" waitingTime="2.00" waitingCount="1" stopTime="0.00" timeLoss="28.12" rerouteNo="1" devices="tripinfo_veh3.18 routing_veh3.18" vType="veh_passenger" speedFactor="1.02" vaporized=""/>
    <tripinfo id="veh3.19" depart="163.00" departLane="651079990_0" departPos="5.10" departSpeed="1.59" departDelay="37.09" arrival="231.00" arrivalLane="683268248#0_1" arrivalPos="433.31" arrivalSpeed="15.79" duration="68.00" routeLength="605.83" waitingTime="3.00" waitingCount="2" stopTime="0.00" timeLoss="24.73" rerouteNo="1" devices="tripinfo_veh3.19 routing_veh3.19" vType="veh_passenger" speedFactor="0.97" vaporized=""/>
    <tripinfo id="veh2.34" depart="156.00" departLane="366949696_0" departPos="5.10" departSpeed="1.25" departDelay="72.06" arrival="233.00" arrivalLane="427550891#0_0" arrivalPos="352.59" arrivalSpeed="8.43" duration="77.00" routeLength="484.59" waitingTime="0.00" waitingCount="0" stopTime="0.00" timeLoss="30.00" rerouteNo="0" devices="tripinfo_veh2.34 routing_veh2.34" vType="veh_passenger" speedFactor="1.11" vaporized=""/>
    <tripinfo id="veh3.21" depart="178.00" departLane="651079990_0" departPos="5.10" departSpeed="0.02" departDelay="52.09" arrival="233.00" arrivalLane="683268248#0_0" arrivalPos="433.31" arrivalSpeed="17.31" duration="55.00" routeLength="605.83" waitingTime="1.00" waitingCount="1" stopTime="0.00" timeLoss="16.69" rerouteNo="1" devices="tripinfo_veh3.21 routing_veh3.21" vType="veh_passenger" speedFactor="1.11" vaporized=""/>
    <tripinfo id="veh2.35" depart="159.00" departLane="366949696_0" departPos="5.10" departSpeed="0.74" departDelay="75.06" arrival="234.00" arrivalLane="427550891#0_0" arrivalPos="352.59" arrivalSpeed="9.18" duration="75.00" routeLength="484.59" waitingTime="0.00" waitingCount="0" stopTime="0.00" timeLoss="30.58" rerouteNo="0" devices="tripinfo_veh2.35 routing_veh2.35" vType="veh_passenger" speedFactor="1.16" vaporized=""/>
    <tripinfo id="truck3" depart="189.00" departLane="870991319#0_0" departPos="7.20" departSpeed="16.71" departDelay="0.14" arrival="234.00" arrivalLane="683268248#0_1" arrivalPos="433.31" arrivalSpeed="16.32" duration="45.00" routeLength="713.97" waitingTime="0.00" waitingCount="0" stopTime="0.00" timeLoss="1.91" rerouteNo="1" devices="tripinfo_truck3 routing_truck3" vType="truck_truck" speedFactor="1.00" vaporized=""/>
    <tripinfo id="truck3.1" depart="190.00" departLane="870991319#0_0" departPos="7.20" departSpeed="14.15" departDelay="1.14" arrival="236.00" arrivalLane="683268248#0_0" arrivalPos="433.31" arrivalSpeed="16.22" duration="46.00" routeLength="713.97" waitingTime="0.00" waitingCount="0" stopTime="0.00" timeLoss="2.56" rerouteNo="1" devices="tripinfo_truck3.1 routing_truck3.1" vType="truck_truck" speedFactor="1.00" vaporized=""/>