<?xml version="1.0" encoding="UTF-8"?>

<!-- generated on 2025-09-17 21:46:26 by Eclipse SUMO GUI Version 1.24.0
<sumoConfiguration xmlns:xsi="http://www.w3.org/2001/XMLSchema-instance" xsi:noNamespaceSchemaLocation="http://sumo.dlr.de/xsd/sumoConfiguration.xsd">

    <input>
        <net-file value="C:\Users\kgaqu\OneDrive\Documents\4th Year\Capstone 2\v10\osm_scenarios\2025-09-17-21-46-20\osm.net.xml.gz"/>
        <route-files value="C:\Users\kgaqu\OneDrive\Documents\4th Year\Capstone 2\v10\osm_scenarios\2025-09-17-21-46-20\osm.bus.trips.xml,C:\Users\kgaqu\OneDrive\Documents\4th Year\Capstone 2\v10\osm_scenarios\2025-09-17-21-46-20\osm.motorcycle.trips.xml,C:\Users\kgaqu\OneDrive\Documents\4th Year\Capstone 2\v10\osm_scenarios\2025-09-17-21-46-20\osm.passenger.trips.xml,C:\Users\kgaqu\OneDrive\Documents\4th Year\Capstone 2\v10\osm_scenarios\2025-09-17-21-46-20\osm.truck.trips.xml"/>
        <additional-files value="C:\Users\kgaqu\OneDrive\Documents\4th Year\Capstone 2\v10\osm_scenarios\2025-09-17-21-46-20\osm.poly.xml.gz,C:\Users\kgaqu\OneDrive\Documents\4th Year\Capstone 2\v10\osm_scenarios\2025-09-17-21-46-20\output.add.xml"/>
    </input>

    <output>
        <tripinfo-output value="C:\Users\kgaqu\OneDrive\Documents\4th Year\Capstone 2\v10\osm_scenarios\2025-09-17-21-46-20\tripinfos.xml"/>
        <statistic-output value="C:\Users\kgaqu\OneDrive\Documents\4th Year\Capstone 2\v10\osm_scenarios\2025-09-17-21-46-20\stats.xml"/>
    </output>

    <processing>
        <ignore-route-errors value="true"/>
        <tls.actuated.jam-threshold value="30"/>
    </processing>

    <routing>
        <device.rerouting.adaptation-steps value="18"/>
        <device.rerouting.adaptation-interval value="10"/>
    </routing>

    <report>
        <verbose value="true"/>
        <duration-log.statistics value="true"/>
        <no-step-log value="true"/>
    </report>

    <gui_only>
        <gui-settings-file value="C:\Users\kgaqu\OneDrive\Documents\4th Year\Capstone 2\v10\osm_scenarios\2025-09-17-21-46-20\osm.view.xml"/>
    </gui_only>

</sumoConfiguration>
-->

<tripinfos xmlns:xsi="http://www.w3.org/2001/XMLSchema-instance" xsi:noNamespaceSchemaLocation="http://sumo.dlr.de/xsd/tripinfo_file.xsd">
    <tripinfo id="motorcycle0" depart="0.00" departLane="-158466193#0_0" departPos="0.20" departSpeed="0.00" departDelay="0.00" arrival="73.00" arrivalLane="158466193#0_0" arrivalPos="0.20" arrivalSpeed="8.57" duration="73.00" routeLength="523.72" waitingTime="0.00" waitingCount="0" stopTime="0.00" timeLoss="12.97" rerouteNo="1" devices="tripinfo_motorcycle0 routing_motorcycle0" vType="motorcycle_motorcycle" speedFactor="1.06" vaporized=""/>
    <tripinfo id="bus0" depart="0.00" departLane="130046557#0_0" departPos="12.10" departSpeed="16.67" departDelay="0.00" arrival="92.00" arrivalLane="-1019458712_0" arrivalPos="18.88" arrivalSpeed="8.21" duration="92.00" routeLength="893.01" waitingTime="1.00" waitingCount="1" stopTime="0.00" timeLoss="15.04" rerouteNo="1" devices="tripinfo_bus0 routing_bus0" vType="bus_bus" speedFactor="1.00" vaporized=""/>
    <tripinfo id="truck0" depart="2.00" departLane="-158466193#0_0" departPos="0.20" departSpeed="0.00" departDelay="2.00" arrival="124.00" arrivalLane="109971518#0_2" arrivalPos="334.00" arrivalSpeed="16.81" duration="122.00" routeLength="834.72" waitingTime="23.00" waitingCount="2" stopTime="0.00" timeLoss="50.91" rerouteNo="1" devices="tripinfo_truck0 routing_truck0" vType="truck_truck" speedFactor="1.02" vaporized=""/>
    <tripinfo id="veh0" depart="0.00" departLane="1019458712_0" departPos="5.10" departSpeed="8.79" departDelay="0.00" arrival="126.00" arrivalLane="109971518#0_2" arrivalPos="334.00" arrivalSpeed="15.79" duration="126.00" routeLength="860.92" waitingTime="22.00" waitingCount="2" stopTime="0.00" timeLoss="52.43" rerouteNo="1" devices="tripinfo_veh0 routing_veh0" vType="veh_passenger" speedFactor="1.01" vaporized=""/>
    <tripinfo id="veh1" depart="60.00" departLane="-183532951#1_1" departPos="5.10" departSpeed="15.04" departDelay="0.55" arrival="151.00" arrivalLane="-1019458712_0" arrivalPos="18.88" arrivalSpeed="9.53" duration="91.00" routeLength="665.76" waitingTime="18.00" waitingCount="1" stopTime="0.00" timeLoss="32.09" rerouteNo="1" devices="tripinfo_veh1 routing_veh1" vType="veh_passenger" speedFactor="1.08" vaporized=""/>
    <tripinfo id="veh2" depart="119.00" departLane="820090516#0_2" departPos="5.10" departSpeed="0.00" departDelay="0.09" arrival="160.00" arrivalLane="109971518#0_2" arrivalPos="334.00" arrivalSpeed="16.14" duration="41.00" routeLength="478.45" waitingTime="2.00" waitingCount="1" stopTime="0.00" timeLoss="12.04" rerouteNo="1" devices="tripinfo_veh2 routing_veh2" vType="veh_passenger" speedFactor="1.01" vaporized=""/>
    <tripinfo id="veh2.1" depart="122.00" departLane="820090516#0_2" departPos="5.10" departSpeed="0.00" departDelay="3.09" arrival="163.00" arrivalLane="109971518#0_2" arrivalPos="334.00" arrivalSpeed="16.05" duration="41.00" routeLength="478.45" waitingTime="1.00" waitingCount="1" stopTime="0.00" timeLoss="12.03" rerouteNo="1" devices="tripinfo_veh2.1 routing_veh2.1" vType="veh_passenger" speedFactor="1.03" vaporized=""/>
    <tripinfo id="veh2.2" depart="125.00" departLane="820090516#0_2" departPos="5.10" departSpeed="0.00" departDelay="6.09" arrival="166.00" arrivalLane="109971518#0_2" arrivalPos="334.00" arrivalSpeed="17.55" duration="41.00" routeLength="478.45" waitingTime="0.00" waitingCount="0" stopTime="0.00" timeLoss="12.73" rerouteNo="1" devices="tripinfo_veh2.2 routing_veh2.2" vType="veh_passenger" speedFactor="1.06" vaporized=""/>
    <tripinfo id="veh2.3" depart="128.00" departLane="820090516#0_2" departPos="5.10" departSpeed="0.00" departDelay="9.09" arrival="169.00" arrivalLane="109971518#0_2" arrivalPos="334.00" arrivalSpeed="15.02" duration="41.00" routeLength="478.45" waitingTime="0.00" waitingCount="0" stopTime="0.00" timeLoss="10.43" rerouteNo="1" devices="tripinfo_veh2.3 routing_veh2.3" vType="veh_passenger" speedFactor="0.96" vaporized=""/>
    <tripinfo id="veh2.4" depart="131.00" departLane="820090516#0_2" departPos="5.10" departSpeed="0.00" departDelay="12.09" arrival="173.00" arrivalLane="109971518#0_2" arrivalPos="334.00" arrivalSpeed="14.48" duration="42.00" routeLength="478.45" waitingTime="0.00" waitingCount="0" stopTime="0.00" timeLoss="9.78" rerouteNo="1" devices="tripinfo_veh2.4 routing_veh2.4" vType="veh_passenger" speedFactor="0.93" vaporized=""/>
    <tripinfo id="veh2.6" depart="137.00" departLane="820090516#0_2" departPos="5.10" departSpeed="0.00" departDelay="18.09" arrival="177.00" arrivalLane="109971518#0_1" arrivalPos="334.00" arrivalSpeed="17.54" duration="40.00" routeLength="478.45" waitingTime="0.00" waitingCount="0" stopTime="0.00" timeLoss="13.23" rerouteNo="1" devices="tripinfo_veh2.6 routing_veh2.6" vType="veh_passenger" speedFactor="1.10" vaporized=""/>
    <tripinfo id="veh2.5" depart="134.00" departLane="820090516#0_2" departPos="5.10" departSpeed="0.00" departDelay="15.09" arrival="178.00" arrivalLane="109971518#0_1" arrivalPos="334.00" arrivalSpeed="13.88" duration="44.00" routeLength="478.45" waitingTime="0.00" waitingCount="0" stopTime="0.00" timeLoss="9.34" rerouteNo="1" devices="tripinfo_veh2.5 routing_veh2.5" vType="veh_passenger" speedFactor="0.87" vaporized=""/>
    <tripinfo id="veh2.7" depart="140.00" departLane="820090516#0_2" departPos="5.10" departSpeed="0.00" departDelay="21.09" arrival="180.00" arrivalLane="109971518#0_2" arrivalPos="334.00" arrivalSpeed="16.51" duration="40.00" routeLength="478.45" waitingTime="0.00" waitingCount="0" stopTime="0.00" timeLoss="9.91" rerouteNo="1" devices="tripinfo_veh2.7 routing_veh2.7" vType="veh_passenger" speedFactor="1.01" vaporized=""/>
    <tripinfo id="veh2.8" depart="143.00" departLane="820090516#0_2" departPos="5.10" departSpeed="0.00" departDelay="24.09" arrival="181.00" arrivalLane="109971518#0_2" arrivalPos="334.00" arrivalSpeed="17.48" duration="38.00" routeLength="478.45" waitingTime="0.00" waitingCount="0" stopTime="0.00" timeLoss="10.86" rerouteNo="1" devices="tripinfo_veh2.8 routing_veh2.8" vType="veh_passenger" speedFactor="1.10" vaporized=""/>
    <tripinfo id="veh2.9" depart="146.00" departLane="820090516#0_2" departPos="5.10" departSpeed="0.00" departDelay="27.09" arrival="186.00" arrivalLane="109971518#0_2" arrivalPos="334.00" arrivalSpeed="14.82" duration="40.00" routeLength="478.45" waitingTime="0.00" waitingCount="0" stopTime="0.00" timeLoss="7.81" rerouteNo="1" devices="tripinfo_veh2.9 routing_veh2.9" vType="veh_passenger" speedFactor="0.92" vaporized=""/>
    <tripinfo id="veh2.10" depart="149.00" departLane="820090516#0_2" departPos="5.10" departSpeed="0.00" departDelay="30.09" arrival="186.00" arrivalLane="109971518#0_1" arrivalPos="334.00" arrivalSpeed="19.38" duration="37.00" routeLength="478.45" waitingTime="0.00" waitingCount="0" stopTime="0.00" timeLoss="11.84" rerouteNo="1" devices="tripinfo_veh2.10 routing_veh2.10" vType="veh_passenger" speedFactor="1.18" vaporized=""/>
    <tripinfo id="veh2.11" depart="152.00" departLane="820090516#0_2" departPos="5.10" departSpeed="0.00" departDelay="33.09" arrival="190.00" arrivalLane="109971518#0_2" arrivalPos="334.00" arrivalSpeed="16.69" duration="38.00" routeLength="478.45" waitingTime="0.00" waitingCount="0" stopTime="0.00" timeLoss="7.96" rerouteNo="1" devices="tripinfo_veh2.11 routing_veh2.11" vType="veh_passenger" speedFactor="1.00" vaporized=""/>
    <tripinfo id="veh2.12" depart="155.00" departLane="820090516#0_2" departPos="5.10" departSpeed="0.00" departDelay="36.09" arrival="192.00" arrivalLane="109971518#0_2" arrivalPos="334.00" arrivalSpeed="16.33" duration="37.00" routeLength="478.45" waitingTime="0.00" waitingCount="0" stopTime="0.00" timeLoss="7.07" rerouteNo="1" devices="tripinfo_veh2.12 routing_veh2.12" vType="veh_passenger" speedFactor="0.99" vaporized=""/>
    <tripinfo id="veh2.13" depart="158.00" departLane="820090516#0_2" departPos="5.10" departSpeed="0.00" departDelay="39.09" arrival="195.00" arrivalLane="109971518#0_2" arrivalPos="334.00" arrivalSpeed="17.42" duration="37.00" routeLength="478.45" waitingTime="0.00" waitingCount="0" stopTime="0.00" timeLoss="9.39" rerouteNo="1" devices="tripinfo_veh2.13 routing_veh2.13" vType="veh_passenger" speedFactor="1.07" vaporized=""/>
    <tripinfo id="veh2.14" depart="161.00" departLane="820090516#0_2" departPos="5.10" departSpeed="0.00" departDelay="42.09" arrival="200.00" arrivalLane="109971518#0_2" arrivalPos="334.00" arrivalSpeed="14.97" duration="39.00" routeLength="478.45" waitingTime="0.00" waitingCount="0" stopTime="0.00" timeLoss="6.89" rerouteNo="1" devices="tripinfo_veh2.14 routing_veh2.14" vType="veh_passenger" speedFactor="0.94" vaporized=""/>
    <tripinfo id="veh2.15" depart="164.00" departLane="820090516#0_2" departPos="5.10" departSpeed="0.00" departDelay="45.09" arrival="201.00" arrivalLane="109971518#0_1" arrivalPos="334.00" arrivalSpeed="17.24" duration="37.00" routeLength="478.45" waitingTime="0.00" waitingCount="0" stopTime="0.00" timeLoss="9.46" rerouteNo="1" devices="tripinfo_veh2.15 routing_veh2.15" vType="veh_passenger" speedFactor="1.10" vaporized=""/>
    <tripinfo id="veh2.16" depart="167.00" departLane="820090516#0_2" departPos="5.10" departSpeed="0.00" departDelay="48.09" arrival="203.00" arrivalLane="109971518#0_2" arrivalPos="334.00" arrivalSpeed="16.48" duration="36.00" routeLength="478.45" waitingTime="0.00" waitingCount="0" stopTime="0.00" timeLoss="6.71" rerouteNo="1" devices="tripinfo_veh2.16 routing_veh2.16" vType="veh_passenger" speedFactor="1.03" vaporized=""/>
    <tripinfo id="veh2.17" depart="170.00" departLane="820090516#0_2" departPos="5.10" departSpeed="0.00" departDelay="51.09" arrival="205.00" arrivalLane="109971518#0_2" arrivalPos="334.00" arrivalSpeed="17.02" duration="35.00" routeLength="478.45" waitingTime="0.00" waitingCount="0" stopTime="0.00" timeLoss="5.73" rerouteNo="1" devices="tripinfo_veh2.17 routing_veh2.17" vType="veh_passenger" speedFactor="1.02" vaporized=""/>
    <tripinfo id="veh2.18" depart="173.00" departLane="820090516#0_2" departPos="5.10" departSpeed="0.00" departDelay="54.09" arrival="208.00" arrivalLane="109971518#0_2" arrivalPos="334.00" arrivalSpeed="16.90" duration="35.00" routeLength="478.45" waitingTime="0.00" waitingCount="0" stopTime="0.00" timeLoss="6.43" rerouteNo="1" devices="tripinfo_veh2.18 routing_veh2.18" vType="veh_passenger" speedFactor="1.06" vaporized=""/>
    <tripinfo id="veh2.19" depart="176.00" departLane="820090516#0_2" departPos="5.10" departSpeed="0.00" departDelay="57.09" arrival="209.00" arrivalLane="109971518#0_2" arrivalPos="334.00" arrivalSpeed="18.94" duration="33.00" routeLength="478.45" waitingTime="0.00" waitingCount="0" stopTime="0.00" timeLoss="7.05" rerouteNo="1" devices="tripinfo_veh2.19 routing_veh2.19" vType="veh_passenger" speedFactor="1.15" vaporized=""/>
    <tripinfo id="veh2.20" depart="179.00" departLane="820090516#0_2" departPos="5.10" departSpeed="0.00" departDelay="60.09" arrival="214.00" arrivalLane="109971518#0_2" arrivalPos="334.00" arrivalSpeed="16.22" duration="35.00" routeLength="478.45" waitingTime="0.00" waitingCount="0" stopTime="0.00" timeLoss="5.87" rerouteNo="1" devices="tripinfo_veh2.20 routing_veh2.20" vType="veh_passenger" speedFactor="1.03" vaporized=""/>
    <tripinfo id="veh2.22" depart="185.00" departLane="820090516#0_2" departPos="5.10" departSpeed="0.00" departDelay="66.09" arrival="223.00" arrivalLane="109971518#0_2" arrivalPos="334.00" arrivalSpeed="17.70" duration="38.00" routeLength="478.45" waitingTime="0.00" waitingCount="0" stopTime="0.00" timeLoss="10.61" rerouteNo="1" devices="tripinfo_veh2.22 routing_veh2.22" vType="veh_passenger" speedFactor="1.12" vaporized=""/>
    <tripinfo id="veh2.21" depart="182.00" departLane="820090516#0_2" departPos="5.10" departSpeed="0.00" departDelay="63.09" arrival="224.00" arrivalLane="109971518#0_1" arrivalPos="334.00" arrivalSpeed="12.90" duration="42.00" routeLength="478.45" waitingTime="0.00" waitingCount="0" stopTime="0.00" timeLoss="5.21" rerouteNo="1" devices="tripinfo_veh2.21 routing_veh2.21" vType="veh_passenger" speedFactor="0.82" vaporized=""/>
    <tripinfo id="veh2.23" depart="188.00" departLane="820090516#0_2" departPos="5.10" departSpeed="0.00" departDelay="69.09" arrival="225.00" arrivalLane="109971518#0_2" arrivalPos="334.00" arrivalSpeed="16.04" duration="37.00" routeLength="478.45" waitingTime="0.00" waitingCount="0" stopTime="0.00" timeLoss="7.35" rerouteNo="1" devices="tripinfo_veh2.23 routing_veh2.23" vType="veh_passenger" speedFactor="1.01" vaporized=""/>
    <tripinfo id="veh2.24" depart="191.00" departLane="820090516#0_2" departPos="5.10" departSpeed="0.00" departDelay="72.09" arrival="227.00" arrivalLane="109971518#0_2" arrivalPos="334.00" arrivalSpeed="16.67" duration="36.00" routeLength="478.45" waitingTime="0.00" waitingCount="0" stopTime="0.00" timeLoss="6.71" rerouteNo="1" devices="tripinfo_veh2.24 routing_veh2.24" vType="veh_passenger" speedFactor="1.03" vaporized=""/>
    <tripinfo id="veh2.25" depart="194.00" departLane="820090516#0_2" departPos="5.10" departSpeed="0.00" departDelay="75.09" arrival="228.00" arrivalLane="109971518#0_2" arrivalPos="334.00" arrivalSpeed="17.36" duration="34.00" routeLength="478.45" waitingTime="0.00" waitingCount="0" stopTime="0.00" timeLoss="6.33" rerouteNo="1" devices="tripinfo_veh2.25 routing_veh2.25" vType="veh_passenger" speedFactor="1.07" vaporized=""/>
    <tripinfo id="veh2.26" depart="197.00" departLane="820090516#0_2" departPos="5.10" departSpeed="0.00" departDelay="78.09" arrival="233.00" arrivalLane="109971518#0_2" arrivalPos="334.00" arrivalSpeed="15.79" duration="36.00" routeLength="478.45" waitingTime="0.00" waitingCount="0" stopTime="0.00" timeLoss="5.17" rerouteNo="1" devices="tripinfo_veh2.26 routing_veh2.26" vType="veh_passenger" speedFactor="0.96" vaporized=""/>
    <tripinfo id="veh2.27" depart="200.00" departLane="820090516#0_2" departPos="5.10" departSpeed="0.00" departDelay="81.09" arrival="235.00" arrivalLane="109971518#0_2" arrivalPos="334.00" arrivalSpeed="17.18" duration="35.00" routeLength="478.45" waitingTime="0.00" waitingCount="0" stopTime="0.00" timeLoss="6.03" rerouteNo="1" devices="tripinfo_veh2.27 routing_veh2.27" vType="veh_passenger" speedFactor="1.04" vaporized=""/>
    <tripinfo id="veh2.28" depart="203.00" departLane="820090516#0_2" departPos="5.10" departSpeed="0.00" departDelay="84.09" arrival="236.00" arrivalLane="109971518#0_2" arrivalPos="334.00" arrivalSpeed="18.69" duration="33.00" routeLength="478.45" waitingTime="0.00" waitingCount="0" stopTime="0.00" timeLoss="8.79" rerouteNo="1" devices="tripinfo_veh2.28 routing_veh2.28" vType="veh_passenger" speedFactor="1.23" vaporized=""/>
    <tripinfo id="veh2.29" depart="206.00" departLane="820090516#0_2" departPos="5.10" departSpeed="0.00" departDelay="87.09" arrival="242.00" arrivalLane="109971518#0_2" arrivalPos="334.00" arrivalSpeed="16.33" duration="36.00" routeLength="478.45" waitingTime="0.00" waitingCount="0" stopTime="0.00" timeLoss="5.95" rerouteNo="1" devices="tripinfo_veh2.29 routing_veh2.29" vType="veh_passenger" speedFactor="1.01" vaporized=""/>
    <tripinfo id="veh2.30" depart="209.00" departLane="820090516#0_2" departPos="5.10" departSpeed="0.00" departDelay="90.09" arrival="243.00" arrivalLane="109971518#0_2" arrivalPos="334.00" arrivalSpeed="17.88" duration="34.00" routeLength="478.45" waitingTime="0.00" waitingCount="0" stopTime="0.00" timeLoss="7.52" rerouteNo="1" devices="tripinfo_veh2.30 routing_veh2.30" vType="veh_passenger" speedFactor="1.12" vaporized=""/>
    <tripinfo id="truck1" depart="90.00" departLane="-158466193#1_0" departPos="7.20" departSpeed="7.63" departDelay="0.82" arrival="280.00" arrivalLane="109971518#0_1" arrivalPos="334.00" arrivalSpeed="14.75" duration="190.00" routeLength="825.80" waitingTime="91.00" waitingCount="2" stopTime="0.00" timeLoss="113.97" rerouteNo="1" devices="tripinfo_truck1 routing_truck1" vType="truck_truck" speedFactor="0.92" vaporized=""/>
    <tripinfo id="veh2.31" depart="212.00" departLane="820090516#0_2" departPos="5.10" departSpeed="0.00" departDelay="93.09" arrival="282.00" arrivalLane="109971518#0_2" arrivalPos="334.00" arrivalSpeed="15.96" duration="70.00" routeLength="478.45" waitingTime="22.00" waitingCount="1" stopTime="0.00" timeLoss="40.51" rerouteNo="1" devices="tripinfo_veh2.31 routing_veh2.31" vType="veh_passenger" speedFactor="1.02" vaporized=""/>
    <tripinfo id="veh2.32" depart="215.00" departLane="820090516#0_2" departPos="5.10" departSpeed="0.00" departDelay="96.09" arrival="284.00" arrivalLane="109971518#0_2" arrivalPos="334.00" arrivalSpeed="16.00" duration="69.00" routeLength="478.45" waitingTime="20.00" waitingCount="1" stopTime="0.00" timeLoss="38.77" rerouteNo="1" devices="tripinfo_veh2.32 routing_veh2.32" vType="veh_passenger" speedFactor="1.00" vaporized=""/>
    <tripinfo id="motorcycle1" depart="179.00" departLane="-182804112_0" departPos="2.30" departSpeed="0.00" departDelay="0.64" arrival="287.00" arrivalLane="-820090516#2_1" arrivalPos="28.53" arrivalSpeed="15.45" duration="108.00" routeLength="135.89" waitingTime="71.00" waitingCount="3" stopTime="0.00" timeLoss="96.79" rerouteNo="1" devices="tripinfo_motorcycle1 routing_motorcycle1" vType="motorcycle_motorcycle" speedFactor="0.94" vaporized=""/>
    <tripinfo id="truck2.4" depart="189.00" departLane="-158466193#1_0" departPos="7.20" departSpeed="3.12" departDelay="10.64" arrival="287.00" arrivalLane="109971518#0_2" arrivalPos="334.00" arrivalSpeed="16.17" duration="98.00" routeLength="851.12" waitingTime="0.00" waitingCount="0" stopTime="0.00" timeLoss="24.16" rerouteNo="1" devices="tripinfo_truck2.4 routing_truck2.4" vType="truck_truck" speedFactor="1.00" vaporized=""/>
    <tripinfo id="veh2.33" depart="218.00" departLane="820090516#0_2" departPos="5.10" departSpeed="0.00" departDelay="99.09" arrival="290.00" arrivalLane="109971518#0_2" arrivalPos="334.00" arrivalSpeed="15.14" duration="72.00" routeLength="478.45" waitingTime="24.00" waitingCount="2" stopTime="0.00" timeLoss="40.75" rerouteNo="1" devices="tripinfo_veh2.33 routing_veh2.33" vType="veh_passenger" speedFactor="0.95" vaporized=""/>
    <tripinfo id="veh2.34" depart="221.00" departLane="820090516#0_2" departPos="5.10" departSpeed="0.00" departDelay="102.09" arrival="291.00" arrivalLane="109971518#0_1" arrivalPos="334.00" arrivalSpeed="18.38" duration="70.00" routeLength="478.45" waitingTime="20.00" waitingCount="2" stopTime="0.00" timeLoss="43.18" rerouteNo="1" devices="tripinfo_veh2.34 routing_veh2.34" vType="veh_passenger" speedFactor="1.11" vaporized=""/>
    <tripinfo id="truck2.5" depart="192.00" departLane="-158466193#1_0" departPos="7.20" departSpeed="2.63" departDelay="13.64" arrival="295.00" arrivalLane="109971518#0_2" arrivalPos="334.00" arrivalSpeed="16.59" duration="103.00" routeLength="851.12" waitingTime="2.00" waitingCount="2" stopTime="0.00" timeLoss="29.04" rerouteNo="1" devices="tripinfo_truck2.5 routing_truck2.5" vType="truck_truck" speedFactor="1.00" vaporized=""/>
    <tripinfo id="veh2.35" depart="224.00" departLane="820090516#0_2" departPos="5.10" departSpeed="0.00" departDelay="105.09" arrival="297.00" arrivalLane="109971518#0_2" arrivalPos="334.00" arrivalSpeed="18.73" duration="73.00" routeLength="478.45" waitingTime="20.00" waitingCount="3" stopTime="0.00" timeLoss="47.19" rerouteNo="1" devices="tripinfo_veh2.35 routing_veh2.35" vType="veh_passenger" speedFactor="1.16" vaporized=""/>
    <tripinfo id="truck2.6" depart="195.00" departLane="-158466193#1_0" departPos="7.20" departSpeed="2.00" departDelay="16.64" arrival="301.00" arrivalLane="109971518#0_2" arrivalPos="334.00" arrivalSpeed="16.80" duration="106.00" routeLength="851.12" waitingTime="7.00" waitingCount="2" stopTime="0.00" timeLoss="34.46" rerouteNo="1" devices="tripinfo_truck2.6 routing_truck2.6" vType="truck_truck" speedFactor="1.05" vaporized=""/>
    <tripinfo id="veh2.36" depart="227.00" departLane="820090516#0_2" departPos="5.10" departSpeed="0.00" departDelay="108.09" arrival="306.00" arrivalLane="109971518#0_2" arrivalPos="334.00" arrivalSpeed="14.87" duration="79.00" routeLength="478.45" waitingTime="24.00" waitingCount="4" stopTime="0.00" timeLoss="46.77" rerouteNo="1" devices="tripinfo_veh2.36 routing_veh2.36" vType="veh_passenger" speedFactor="0.94" vaporized=""/>
    <tripinfo id="truck2.7" depart="199.00" departLane="-158466193#1_0" departPos="7.20" departSpeed="5.57" departDelay="20.64" arrival="308.00" arrivalLane="109971518#0_2" arrivalPos="334.00" arrivalSpeed="17.24" duration="109.00" routeLength="851.12" waitingTime="10.00" waitingCount="1" stopTime="0.00" timeLoss="37.23" rerouteNo="1" devices="tripinfo_truck2.7 routing_truck2.7" vType="truck_truck" speedFactor="1.04" vaporized=""/>
    <tripinfo id="veh2.37" depart="230.00" departLane="820090516#0_2" departPos="5.10" departSpeed="0.00" departDelay="111.09" arrival="310.00" arrivalLane="109971518#0_2" arrivalPos="334.00" arrivalSpeed="17.72" duration="80.00" routeLength="478.45" waitingTime="22.00" waitingCount="2" stopTime="0.00" timeLoss="53.05" rerouteNo="1" devices="tripinfo_veh2.37 routing_veh2.37" vType="veh_passenger" speedFactor="1.13" vaporized=""/>
    <tripinfo id="truck2.8" depart="201.00" departLane="-158466193#1_0" departPos="7.20" departSpeed="3.15" departDelay="22.64" arrival="315.00" arrivalLane="109971518#0_2" arrivalPos="334.00" arrivalSpeed="16.71" duration="114.00" routeLength="851.12" waitingTime="14.00" waitingCount="1" stopTime="0.00" timeLoss="41.78" rerouteNo="1" devices="tripinfo_truck2.8 routing_truck2.8" vType="truck_truck" speedFactor="1.04" vaporized=""/>
    <tripinfo id="truck2" depart="179.00" departLane="-158466193#1_0" departPos="7.20" departSpeed="8.37" departDelay="0.64" arrival="320.00" arrivalLane="109971518#0_2" arrivalPos="334.00" arrivalSpeed="16.23" duration="141.00" routeLength="851.12" waitingTime="29.00" waitingCount="4" stopTime="0.00" timeLoss="66.54" rerouteNo="1" devices="tripinfo_truck2 routing_truck2" vType="truck_truck" speedFactor="1.01" vaporized=""/>
    <tripinfo id="truck2.9" depart="204.00" departLane="-158466193#1_0" departPos="7.20" departSpeed="0.99" departDelay="25.64" arrival="323.00" arrivalLane="109971518#0_2" arrivalPos="334.00" arrivalSpeed="15.69" duration="119.00" routeLength="851.12" waitingTime="15.00" waitingCount="2" stopTime="0.00" timeLoss="40.43" rerouteNo="1" devices="tripinfo_truck2.9 routing_truck2.9" vType="truck_truck" speedFactor="0.96" vaporized=""/>
    <tripinfo id="truck2.2" depart="183.00" departLane="-158466193#1_0" departPos="7.20" departSpeed="5.12" departDelay="4.64" arrival="328.00" arrivalLane="109971518#0_2" arrivalPos="334.00" arrivalSpeed="16.50" duration="145.00" routeLength="851.12" waitingTime="23.00" waitingCount="5" stopTime="0.00" timeLoss="71.90" rerouteNo="1" devices="tripinfo_truck2.2 routing_truck2.2" vType="truck_truck" speedFactor="1.02" vaporized=""/>
    <tripinfo id="truck2.10" depart="209.00" departLane="-158466193#1_0" departPos="7.20" departSpeed="1.64" departDelay="30.64" arrival="330.00" arrivalLane="109971518#0_2" arrivalPos="334.00" arrivalSpeed="15.73" duration="121.00" routeLength="851.12" waitingTime="23.00" waitingCount="2" stopTime="0.00" timeLoss="43.20" rerouteNo="1" devices="tripinfo_truck2.10 routing_truck2.10" vType="truck_truck" speedFactor="0.96" vaporized=""/>
    <tripinfo id="veh2.38" depart="234.00" departLane="820090516#0_2" departPos="5.10" departSpeed="0.00" departDelay="115.09" arrival="332.00" arrivalLane="109971518#0_0" arrivalPos="334.00" arrivalSpeed="11.58" duration="98.00" routeLength="478.45" waitingTime="25.00" waitingCount="5" stopTime="0.00" timeLoss="57.17" rerouteNo="1" devices="tripinfo_veh2.38 routing_veh2.38" vType="veh_passenger" speedFactor="0.73" vaporized=""/>
    <tripinfo id="truck2.14" depart="225.00" departLane="-158466193#1_0" departPos="7.20" departSpeed="2.90" departDelay="46.64" arrival="332.00" arrivalLane="109971518#0_2" arrivalPos="334.00" arrivalSpeed="16.69" duration="107.00" routeLength="851.12" waitingTime="9.00" waitingCount="2" stopTime="0.00" timeLoss="32.83" rerouteNo="1" devices="tripinfo_truck2.14 routing_truck2.14" vType="truck_truck" speedFactor="1.02" vaporized=""/>
    <tripinfo id="truck2.15" depart="228.00" departLane="-158466193#1_0" departPos="7.20" departSpeed="1.21" departDelay="49.64" arrival="333.00" arrivalLane="109971518#0_2" arrivalPos="334.00" arrivalSpeed="17.59" duration="105.00" routeLength="851.12" waitingTime="6.00" waitingCount="4" stopTime="0.00" timeLoss="34.25" rerouteNo="1" devices="tripinfo_truck2.15 routing_truck2.15" vType="truck_truck" speedFactor="1.06" vaporized=""/>
    <tripinfo id="bus1" depart="179.00" departLane="130046557#0_0" departPos="12.10" departSpeed="16.67" departDelay="0.64" arrival="334.00" arrivalLane="-1019458712_0" arrivalPos="18.88" arrivalSpeed="8.75" duration="155.00" routeLength="893.01" waitingTime="58.00" waitingCount="2" stopTime="0.00" timeLoss="78.88" rerouteNo="1" devices="tripinfo_bus1 routing_bus1" vType="bus_bus" speedFactor="1.00" vaporized=""/>
    <tripinfo id="truck2.13" depart="220.00" departLane="-158466193#1_0" departPos="7.20" departSpeed="0.77" departDelay="41.64" arrival="335.00" arrivalLane="109971518#0_2" arrivalPos="334.00" arrivalSpeed="16.72" duration="115.00" routeLength="851.12" waitingTime="21.00" waitingCount="1" stopTime="0.00" timeLoss="42.40" rerouteNo="1" devices="tripinfo_truck2.13 routing_truck2.13" vType="truck_truck" speedFactor="1.03" vaporized=""/>
    <tripinfo id="veh2.39" depart="237.00" departLane="820090516#0_2" departPos="5.10" departSpeed="0.00" departDelay="118.09" arrival="336.00" arrivalLane="109971518#0_1" arrivalPos="334.00" arrivalSpeed="18.17" duration="99.00" routeLength="478.45" waitingTime="37.00" waitingCount="5" stopTime="0.00" timeLoss="72.66" rerouteNo="1" devices="tripinfo_veh2.39 routing_veh2.39" vType="veh_passenger" speedFactor="1.14" vaporized=""/>
    <tripinfo id="truck2.3" depart="185.00" departLane="-158466193#1_0" departPos="7.20" departSpeed="1.88" departDelay="6.64" arrival="338.00" arrivalLane="109971518#0_2" arrivalPos="334.00" arrivalSpeed="17.17" duration="153.00" routeLength="851.12" waitingTime="37.00" waitingCount="5" stopTime="0.00" timeLoss="82.41" rerouteNo="1" devices="tripinfo_truck2.3 routing_truck2.3" vType="truck_truck" speedFactor="1.06" vaporized=""/>
    <tripinfo id="truck2.12" depart="217.00" departLane="-158466193#1_0" departPos="7.20" departSpeed="2.98" departDelay="38.64" arrival="340.00" arrivalLane="109971518#0_2" arrivalPos="334.00" arrivalSpeed="16.87" duration="123.00" routeLength="851.12" waitingTime="29.00" waitingCount="1" stopTime="0.00" timeLoss="49.04" rerouteNo="1" devices="tripinfo_truck2.12 routing_truck2.12" vType="truck_truck" speedFactor="1.01" vaporized=""/>
    <tripinfo id="truck2.16" depart="232.00" departLane="-158466193#1_0" departPos="7.20" departSpeed="0.42" departDelay="53.64" arrival="345.00" arrivalLane="109971518#0_2" arrivalPos="334.00" arrivalSpeed="14.96" duration="113.00" routeLength="851.12" waitingTime="6.00" waitingCount="1" stopTime="0.00" timeLoss="32.13" rerouteNo="1" devices="tripinfo_truck2.16 routing_truck2.16" vType="truck_truck" speedFactor="0.93" vaporized=""/>
    <tripinfo id="truck2.11" depart="213.00" departLane="-158466193#1_0" departPos="7.20" departSpeed="1.73" departDelay="34.64" arrival="346.00" arrivalLane="109971518#0_2" arrivalPos="334.00" arrivalSpeed="15.85" duration="133.00" routeLength="851.12" waitingTime="32.00" waitingCount="1" stopTime="0.00" timeLoss="55.55" rerouteNo="1" devices="tripinfo_truck2.11 routing_truck2.11" vType="truck_truck" speedFactor="0.96" vaporized=""/>