<?xml version="1.0" encoding="UTF-8"?>

<!-- generated on 2025-10-02 19:16:48 by Eclipse SUMO GUI Version 1.24.0
<sumoConfiguration xmlns:xsi="http://www.w3.org/2001/XMLSchema-instance" xsi:noNamespaceSchemaLocation="http://sumo.dlr.de/xsd/sumoConfiguration.xsd">

    <input>
        <net-file value="osm.net.xml.gz"/>
        <route-files value="osm.bus.trips.xml,osm.motorcycle.trips.xml,osm.passenger.trips.xml,osm.truck.trips.xml"/>
        <additional-files value="osm.poly.xml.gz,output.add.xml"/>
    </input>

    <output>
        <emission-output value="St%25252520Dominic%25252520Area_emissions.xml"/>
        <summary-output value="St%25252520Dominic%25252520Area_summary.xml"/>
        <tripinfo-output value="tripinfos.xml"/>
        <edgedata-output value="St%25252520Dominic%25252520Area_edgedata.xml"/>
        <statistic-output value="stats.xml"/>
    </output>

    <processing>
        <ignore-route-errors value="true"/>
        <tls.actuated.jam-threshold value="30"/>
    </processing>

    <routing>
        <device.rerouting.adaptation-steps value="18"/>
        <device.rerouting.adaptation-interval value="10"/>
    </routing>

    <report>
        <verbose value="true"/>
        <duration-log.statistics value="true"/>
        <no-step-log value="true"/>
    </report>

    <gui_only>
        <gui-settings-file value="osm.view.xml"/>
    </gui_only>

</sumoConfiguration>
-->

<tripinfos xmlns:xsi="http://www.w3.org/2001/XMLSchema-instance" xsi:noNamespaceSchemaLocation="http://sumo.dlr.de/xsd/tripinfo_file.xsd">
    <tripinfo id="veh0" depart="0.00" departLane="1054315844#0_0" departPos="5.10" departSpeed="16.84" departDelay="0.00" arrival="26.00" arrivalLane="1326404883_0" arrivalPos="139.02" arrivalSpeed="16.33" duration="26.00" routeLength="422.55" waitingTime="0.00" waitingCount="0" stopTime="0.00" timeLoss="0.80" rerouteNo="1" devices="tripinfo_veh0 routing_veh0 emissions_veh0" vType="veh_passenger" speedFactor="1.01" vaporized="">
        <emissions CO_abs="497.22" CO2_abs="57804.93" HC_abs="3.35" PMx_abs="8.34" NOx_abs="21.71" fuel_abs="18739.62" electricity_abs="0.00"/>
    </tripinfo>
    <tripinfo id="motorcycle0" depart="0.00" departLane="-1392084250_0" departPos="2.30" departSpeed="17.67" departDelay="0.00" arrival="45.00" arrivalLane="1326404883_0" arrivalPos="139.02" arrivalSpeed="17.06" duration="45.00" routeLength="365.92" waitingTime="17.00" waitingCount="1" stopTime="0.00" timeLoss="22.40" rerouteNo="0" devices="tripinfo_motorcycle0 routing_motorcycle0 emissions_motorcycle0" vType="motorcycle_motorcycle" speedFactor="1.06" vaporized="">
        <emissions CO_abs="2650.00" CO2_abs="79530.75" HC_abs="1010.84" PMx_abs="19.85" NOx_abs="106.56" fuel_abs="25788.33" electricity_abs="0.00"/>
    </tripinfo>
    <tripinfo id="veh1" depart="72.00" departLane="-1392084250_0" departPos="5.10" departSpeed="18.05" departDelay="0.77" arrival="122.00" arrivalLane="-564298126#9_0" arrivalPos="236.18" arrivalSpeed="17.37" duration="50.00" routeLength="545.36" waitingTime="10.00" waitingCount="1" stopTime="0.00" timeLoss="19.33" rerouteNo="1" devices="tripinfo_veh1 routing_veh1 emissions_veh1" vType="veh_passenger" speedFactor="1.08" vaporized="">
        <emissions CO_abs="919.18" CO2_abs="134625.93" HC_abs="6.17" PMx_abs="13.26" NOx_abs="49.08" fuel_abs="43643.91" electricity_abs="0.00"/>
    </tripinfo>
    <tripinfo id="veh2.1" depart="143.00" departLane="-1392084250_1" departPos="5.10" departSpeed="14.55" departDelay="0.53" arrival="192.00" arrivalLane="-564298126#9_1" arrivalPos="236.18" arrivalSpeed="13.40" duration="49.00" routeLength="544.72" waitingTime="3.00" waitingCount="1" stopTime="0.00" timeLoss="10.70" rerouteNo="1" devices="tripinfo_veh2.1 routing_veh2.1 emissions_veh2.1" vType="veh_passenger" speedFactor="0.87" vaporized="">
        <emissions CO_abs="585.31" CO2_abs="110515.77" HC_abs="3.93" PMx_abs="12.14" NOx_abs="38.88" fuel_abs="35827.77" electricity_abs="0.00"/>
    </tripinfo>
    <tripinfo id="veh2" depart="143.00" departLane="-1392084250_0" departPos="5.10" departSpeed="13.76" departDelay="0.53" arrival="193.00" arrivalLane="-564298126#9_0" arrivalPos="236.18" arrivalSpeed="13.50" duration="50.00" routeLength="545.36" waitingTime="1.00" waitingCount="1" stopTime="0.00" timeLoss="9.57" rerouteNo="1" devices="tripinfo_veh2 routing_veh2 emissions_veh2" vType="veh_passenger" speedFactor="0.83" vaporized="">
        <emissions CO_abs="685.35" CO2_abs="114352.06" HC_abs="4.57" PMx_abs="10.53" NOx_abs="39.40" fuel_abs="37071.34" electricity_abs="0.00"/>
    </tripinfo>
    <tripinfo id="veh2.2" depart="144.00" departLane="-1392084250_1" departPos="5.10" departSpeed="11.79" departDelay="1.53" arrival="193.00" arrivalLane="-564298126#9_1" arrivalPos="236.18" arrivalSpeed="14.22" duration="49.00" routeLength="544.72" waitingTime="3.00" waitingCount="1" stopTime="0.00" timeLoss="13.16" rerouteNo="1" devices="tripinfo_veh2.2 routing_veh2.2 emissions_veh2.2" vType="veh_passenger" speedFactor="0.92" vaporized="">
        <emissions CO_abs="709.51" CO2_abs="118015.79" HC_abs="4.73" PMx_abs="10.98" NOx_abs="41.00" fuel_abs="38259.09" electricity_abs="0.00"/>
    </tripinfo>
    <tripinfo id="veh2.3" depart="144.00" departLane="-1392084250_0" departPos="5.10" departSpeed="10.04" departDelay="1.53" arrival="194.00" arrivalLane="-564298126#9_0" arrivalPos="236.18" arrivalSpeed="15.38" duration="50.00" routeLength="545.36" waitingTime="1.00" waitingCount="1" stopTime="0.00" timeLoss="15.32" rerouteNo="1" devices="tripinfo_veh2.3 routing_veh2.3 emissions_veh2.3" vType="veh_passenger" speedFactor="0.95" vaporized="">
        <emissions CO_abs="883.05" CO2_abs="136587.89" HC_abs="5.87" PMx_abs="11.79" NOx_abs="47.32" fuel_abs="44279.83" electricity_abs="0.00"/>
    </tripinfo>
    <tripinfo id="veh2.4" depart="145.00" departLane="-1392084250_1" departPos="5.10" departSpeed="7.83" departDelay="2.53" arrival="195.00" arrivalLane="-564298126#9_1" arrivalPos="236.18" arrivalSpeed="17.42" duration="50.00" routeLength="544.72" waitingTime="1.00" waitingCount="1" stopTime="0.00" timeLoss="20.53" rerouteNo="1" devices="tripinfo_veh2.4 routing_veh2.4 emissions_veh2.4" vType="veh_passenger" speedFactor="1.13" vaporized="">
        <emissions CO_abs="1074.60" CO2_abs="151763.41" HC_abs="7.13" PMx_abs="12.77" NOx_abs="53.08" fuel_abs="49199.45" electricity_abs="0.00"/>
    </tripinfo>
    <tripinfo id="veh2.5" depart="145.00" departLane="-1392084250_0" departPos="5.10" departSpeed="5.37" departDelay="2.53" arrival="196.00" arrivalLane="-564298126#9_0" arrivalPos="236.18" arrivalSpeed="15.44" duration="51.00" routeLength="545.36" waitingTime="1.00" waitingCount="1" stopTime="0.00" timeLoss="15.35" rerouteNo="1" devices="tripinfo_veh2.5 routing_veh2.5 emissions_veh2.5" vType="veh_passenger" speedFactor="0.93" vaporized="">
        <emissions CO_abs="1082.28" CO2_abs="158451.81" HC_abs="7.18" PMx_abs="12.60" NOx_abs="54.45" fuel_abs="51367.67" electricity_abs="0.00"/>
    </tripinfo>
    <tripinfo id="veh2.6" depart="147.00" departLane="-1392084250_1" departPos="5.10" departSpeed="9.62" departDelay="4.53" arrival="197.00" arrivalLane="-564298126#9_1" arrivalPos="236.18" arrivalSpeed="18.02" duration="50.00" routeLength="544.72" waitingTime="1.00" waitingCount="1" stopTime="0.00" timeLoss="21.38" rerouteNo="1" devices="tripinfo_veh2.6 routing_veh2.6 emissions_veh2.6" vType="veh_passenger" speedFactor="1.18" vaporized="">
        <emissions CO_abs="1170.75" CO2_abs="156616.28" HC_abs="7.78" PMx_abs="13.07" NOx_abs="55.06" fuel_abs="50772.63" electricity_abs="0.00"/>
    </tripinfo>
    <tripinfo id="veh2.7" depart="147.00" departLane="-1392084250_0" departPos="5.10" departSpeed="4.53" departDelay="4.53" arrival="197.00" arrivalLane="-564298126#9_0" arrivalPos="236.18" arrivalSpeed="16.95" duration="50.00" routeLength="545.36" waitingTime="0.00" waitingCount="0" stopTime="0.00" timeLoss="21.65" rerouteNo="1" devices="tripinfo_veh2.7 routing_veh2.7 emissions_veh2.7" vType="veh_passenger" speedFactor="1.15" vaporized="">
        <emissions CO_abs="1190.06" CO2_abs="168577.59" HC_abs="7.90" PMx_abs="13.43" NOx_abs="58.52" fuel_abs="54650.31" electricity_abs="0.00"/>
    </tripinfo>
    <tripinfo id="veh2.8" depart="148.00" departLane="-1392084250_1" departPos="5.10" departSpeed="4.57" departDelay="5.53" arrival="198.00" arrivalLane="-564298126#9_1" arrivalPos="236.18" arrivalSpeed="16.52" duration="50.00" routeLength="544.72" waitingTime="0.00" waitingCount="0" stopTime="0.00" timeLoss="17.16" rerouteNo="1" devices="tripinfo_veh2.8 routing_veh2.8 emissions_veh2.8" vType="veh_passenger" speedFactor="1.01" vaporized="">
        <emissions CO_abs="1206.28" CO2_abs="159772.13" HC_abs="8.00" PMx_abs="11.69" NOx_abs="54.96" fuel_abs="51795.56" electricity_abs="0.00"/>
    </tripinfo>
    <tripinfo id="veh2.9" depart="149.00" departLane="-1392084250_0" departPos="5.10" departSpeed="3.71" departDelay="6.53" arrival="199.00" arrivalLane="-564298126#9_0" arrivalPos="236.18" arrivalSpeed="19.04" duration="50.00" routeLength="545.36" waitingTime="0.00" waitingCount="0" stopTime="0.00" timeLoss="21.52" rerouteNo="1" devices="tripinfo_veh2.9 routing_veh2.9 emissions_veh2.9" vType="veh_passenger" speedFactor="1.17" vaporized="">
        <emissions CO_abs="1348.84" CO2_abs="175313.46" HC_abs="8.95" PMx_abs="13.73" NOx_abs="60.95" fuel_abs="56833.84" electricity_abs="0.00"/>
    </tripinfo>
    <tripinfo id="veh2.10" depart="150.00" departLane="-1392084250_1" departPos="5.10" departSpeed="4.74" departDelay="7.53" arrival="200.00" arrivalLane="-564298126#9_1" arrivalPos="236.18" arrivalSpeed="15.52" duration="50.00" routeLength="544.72" waitingTime="0.00" waitingCount="0" stopTime="0.00" timeLoss="16.53" rerouteNo="1" devices="tripinfo_veh2.10 routing_veh2.10 emissions_veh2.10" vType="veh_passenger" speedFactor="0.99" vaporized="">
        <emissions CO_abs="1176.36" CO2_abs="160526.39" HC_abs="7.81" PMx_abs="12.62" NOx_abs="55.33" fuel_abs="52040.12" electricity_abs="0.00"/>
    </tripinfo>
    <tripinfo id="veh2.11" depart="151.00" departLane="-1392084250_0" departPos="5.10" departSpeed="3.13" departDelay="8.53" arrival="201.00" arrivalLane="-564298126#9_0" arrivalPos="236.18" arrivalSpeed="16.18" duration="50.00" routeLength="545.36" waitingTime="0.00" waitingCount="0" stopTime="0.00" timeLoss="17.20" rerouteNo="1" devices="tripinfo_veh2.11 routing_veh2.11 emissions_veh2.11" vType="veh_passenger" speedFactor="1.02" vaporized="">
        <emissions CO_abs="1316.11" CO2_abs="178227.43" HC_abs="8.73" PMx_abs="13.31" NOx_abs="60.77" fuel_abs="57778.44" electricity_abs="0.00"/>
    </tripinfo>
    <tripinfo id="veh2.12" depart="152.00" departLane="-1392084250_1" departPos="5.10" departSpeed="1.13" departDelay="9.53" arrival="202.00" arrivalLane="-564298126#9_1" arrivalPos="236.18" arrivalSpeed="15.87" duration="50.00" routeLength="544.72" waitingTime="0.00" waitingCount="0" stopTime="0.00" timeLoss="15.53" rerouteNo="1" devices="tripinfo_veh2.12 routing_veh2.12 emissions_veh2.12" vType="veh_passenger" speedFactor="0.97" vaporized="">
        <emissions CO_abs="1122.74" CO2_abs="158322.83" HC_abs="7.45" PMx_abs="12.30" NOx_abs="54.01" fuel_abs="51325.73" electricity_abs="0.00"/>
    </tripinfo>
    <tripinfo id="veh2.13" depart="154.00" departLane="-1392084250_0" departPos="5.10" departSpeed="6.25" departDelay="11.53" arrival="202.00" arrivalLane="-564298126#9_0" arrivalPos="236.18" arrivalSpeed="17.93" duration="48.00" routeLength="545.36" waitingTime="0.00" waitingCount="0" stopTime="0.00" timeLoss="20.07" rerouteNo="1" devices="tripinfo_veh2.13 routing_veh2.13 emissions_veh2.13" vType="veh_passenger" speedFactor="1.18" vaporized="">
        <emissions CO_abs="1385.78" CO2_abs="175460.02" HC_abs="9.19" PMx_abs="13.26" NOx_abs="61.33" fuel_abs="56881.36" electricity_abs="0.00"/>
    </tripinfo>
    <tripinfo id="veh2.14" depart="155.00" departLane="-1392084250_1" departPos="5.10" departSpeed="0.39" departDelay="12.53" arrival="203.00" arrivalLane="-564298126#9_1" arrivalPos="236.18" arrivalSpeed="17.13" duration="48.00" routeLength="544.72" waitingTime="0.00" waitingCount="0" stopTime="0.00" timeLoss="18.05" rerouteNo="1" devices="tripinfo_veh2.14 routing_veh2.14 emissions_veh2.14" vType="veh_passenger" speedFactor="1.10" vaporized="">
        <emissions CO_abs="1408.07" CO2_abs="178945.80" HC_abs="9.33" PMx_abs="12.95" NOx_abs="62.06" fuel_abs="58011.28" electricity_abs="0.00"/>
    </tripinfo>
    <tripinfo id="veh2.15" depart="156.00" departLane="-1392084250_0" departPos="5.10" departSpeed="7.28" departDelay="13.53" arrival="205.00" arrivalLane="-564298126#9_0" arrivalPos="236.18" arrivalSpeed="14.78" duration="49.00" routeLength="545.36" waitingTime="0.00" waitingCount="0" stopTime="0.00" timeLoss="12.43" rerouteNo="1" devices="tripinfo_veh2.15 routing_veh2.15 emissions_veh2.15" vType="veh_passenger" speedFactor="0.90" vaporized="">
        <emissions CO_abs="851.86" CO2_abs="137903.67" HC_abs="5.68" PMx_abs="13.06" NOx_abs="46.89" fuel_abs="44706.37" electricity_abs="0.00"/>
    </tripinfo>
    <tripinfo id="veh2.17" depart="159.00" departLane="-1392084250_1" departPos="5.10" departSpeed="6.37" departDelay="16.53" arrival="205.00" arrivalLane="-564298126#9_1" arrivalPos="236.18" arrivalSpeed="15.33" duration="46.00" routeLength="544.72" waitingTime="0.00" waitingCount="0" stopTime="0.00" timeLoss="11.40" rerouteNo="1" devices="tripinfo_veh2.17 routing_veh2.17 emissions_veh2.17" vType="veh_passenger" speedFactor="0.96" vaporized="">
        <emissions CO_abs="1111.39" CO2_abs="149885.83" HC_abs="7.38" PMx_abs="12.32" NOx_abs="52.01" fuel_abs="48590.68" electricity_abs="0.00"/>
    </tripinfo>
    <tripinfo id="veh2.16" depart="158.00" departLane="-1392084250_0" departPos="5.10" departSpeed="7.57" departDelay="15.53" arrival="207.00" arrivalLane="-564298126#9_0" arrivalPos="236.18" arrivalSpeed="16.53" duration="49.00" routeLength="545.36" waitingTime="0.00" waitingCount="0" stopTime="0.00" timeLoss="16.54" rerouteNo="1" devices="tripinfo_veh2.16 routing_veh2.16 emissions_veh2.16" vType="veh_passenger" speedFactor="1.03" vaporized="">
        <emissions CO_abs="1110.52" CO2_abs="151196.35" HC_abs="7.37" PMx_abs="12.94" NOx_abs="52.73" fuel_abs="49015.57" electricity_abs="0.00"/>
    </tripinfo>
    <tripinfo id="veh2.19" depart="161.00" departLane="-1392084250_1" departPos="5.10" departSpeed="6.19" departDelay="18.53" arrival="207.00" arrivalLane="-564298126#9_1" arrivalPos="236.18" arrivalSpeed="16.97" duration="46.00" routeLength="544.72" waitingTime="0.00" waitingCount="0" stopTime="0.00" timeLoss="13.62" rerouteNo="1" devices="tripinfo_veh2.19 routing_veh2.19 emissions_veh2.19" vType="veh_passenger" speedFactor="1.04" vaporized="">
        <emissions CO_abs="1191.67" CO2_abs="156386.53" HC_abs="7.92" PMx_abs="13.18" NOx_abs="54.97" fuel_abs="50698.14" electricity_abs="0.00"/>
    </tripinfo>
    <tripinfo id="veh2.18" depart="160.00" departLane="-1392084250_0" departPos="5.10" departSpeed="8.81" departDelay="17.53" arrival="208.00" arrivalLane="-564298126#9_0" arrivalPos="236.18" arrivalSpeed="17.76" duration="48.00" routeLength="545.36" waitingTime="0.00" waitingCount="0" stopTime="0.00" timeLoss="17.80" rerouteNo="1" devices="tripinfo_veh2.18 routing_veh2.18 emissions_veh2.18" vType="veh_passenger" speedFactor="1.09" vaporized="">
        <emissions CO_abs="1051.51" CO2_abs="149339.60" HC_abs="7.00" PMx_abs="13.58" NOx_abs="52.41" fuel_abs="48413.71" electricity_abs="0.00"/>
    </tripinfo>
    <tripinfo id="veh3.1" depart="214.00" departLane="1054315844#0_1" departPos="5.10" departSpeed="18.14" departDelay="0.30" arrival="239.00" arrivalLane="1326404883_1" arrivalPos="139.02" arrivalSpeed="17.56" duration="25.00" routeLength="422.70" waitingTime="0.00" waitingCount="0" stopTime="0.00" timeLoss="0.83" rerouteNo="1" devices="tripinfo_veh3.1 routing_veh3.1 emissions_veh3.1" vType="veh_passenger" speedFactor="1.09" vaporized="">
        <emissions CO_abs="509.74" CO2_abs="57671.57" HC_abs="3.46" PMx_abs="9.40" NOx_abs="21.82" fuel_abs="18696.43" electricity_abs="0.00"/>
    </tripinfo>
    <tripinfo id="veh3" depart="214.00" departLane="1054315844#0_0" departPos="5.10" departSpeed="17.39" departDelay="0.30" arrival="240.00" arrivalLane="1326404883_0" arrivalPos="139.02" arrivalSpeed="16.85" duration="26.00" routeLength="422.55" waitingTime="0.00" waitingCount="0" stopTime="0.00" timeLoss="0.87" rerouteNo="1" devices="tripinfo_veh3 routing_veh3 emissions_veh3" vType="veh_passenger" speedFactor="1.04" vaporized="">
        <emissions CO_abs="518.48" CO2_abs="60892.65" HC_abs="3.51" PMx_abs="9.53" NOx_abs="22.93" fuel_abs="19740.66" electricity_abs="0.00"/>
    </tripinfo>
    <tripinfo id="veh3.2" depart="215.00" departLane="1054315844#0_1" departPos="5.10" departSpeed="15.87" departDelay="1.30" arrival="242.00" arrivalLane="1326404883_1" arrivalPos="139.02" arrivalSpeed="16.04" duration="27.00" routeLength="422.70" waitingTime="0.00" waitingCount="0" stopTime="0.00" timeLoss="1.08" rerouteNo="1" devices="tripinfo_veh3.2 routing_veh3.2 emissions_veh3.2" vType="veh_passenger" speedFactor="1.00" vaporized="">
        <emissions CO_abs="485.50" CO2_abs="63232.08" HC_abs="3.29" PMx_abs="9.87" NOx_abs="23.59" fuel_abs="20499.10" electricity_abs="0.00"/>
    </tripinfo>
    <tripinfo id="motorcycle1" depart="214.00" departLane="555020953#0_0" departPos="2.30" departSpeed="0.00" departDelay="0.30" arrival="243.00" arrivalLane="653727191#0_0" arrivalPos="216.87" arrivalSpeed="13.37" duration="29.00" routeLength="288.55" waitingTime="3.00" waitingCount="1" stopTime="0.00" timeLoss="10.17" rerouteNo="0" devices="tripinfo_motorcycle1 routing_motorcycle1 emissions_motorcycle1" vType="motorcycle_motorcycle" speedFactor="0.94" vaporized="">
        <emissions CO_abs="1745.60" CO2_abs="57552.19" HC_abs="640.72" PMx_abs="12.62" NOx_abs="81.63" fuel_abs="18661.41" electricity_abs="0.00"/>
    </tripinfo>
    <tripinfo id="veh3.3" depart="215.00" departLane="1054315844#0_0" departPos="5.10" departSpeed="15.01" departDelay="1.30" arrival="245.00" arrivalLane="1326404883_0" arrivalPos="139.02" arrivalSpeed="13.98" duration="30.00" routeLength="422.55" waitingTime="0.00" waitingCount="0" stopTime="0.00" timeLoss="1.21" rerouteNo="1" devices="tripinfo_veh3.3 routing_veh3.3 emissions_veh3.3" vType="veh_passenger" speedFactor="0.90" vaporized="">
        <emissions CO_abs="428.44" CO2_abs="62670.58" HC_abs="2.88" PMx_abs="8.89" NOx_abs="22.99" fuel_abs="20317.07" electricity_abs="0.00"/>
    </tripinfo>
    <tripinfo id="veh3.4" depart="216.00" departLane="1054315844#0_1" departPos="5.10" departSpeed="13.79" departDelay="2.30" arrival="247.00" arrivalLane="1326404883_1" arrivalPos="139.02" arrivalSpeed="14.42" duration="31.00" routeLength="422.70" waitingTime="0.00" waitingCount="0" stopTime="0.00" timeLoss="1.41" rerouteNo="1" devices="tripinfo_veh3.4 routing_veh3.4 emissions_veh3.4" vType="veh_passenger" speedFactor="0.88" vaporized="">
        <emissions CO_abs="428.78" CO2_abs="66789.04" HC_abs="2.89" PMx_abs="9.38" NOx_abs="24.38" fuel_abs="21652.24" electricity_abs="0.00"/>
    </tripinfo>
    <tripinfo id="veh3.5" depart="216.00" departLane="1054315844#0_0" departPos="5.10" departSpeed="11.99" departDelay="2.30" arrival="248.00" arrivalLane="1326404883_0" arrivalPos="139.02" arrivalSpeed="13.90" duration="32.00" routeLength="422.55" waitingTime="0.00" waitingCount="0" stopTime="0.00" timeLoss="1.57" rerouteNo="1" devices="tripinfo_veh3.5 routing_veh3.5 emissions_veh3.5" vType="veh_passenger" speedFactor="0.85" vaporized="">
        <emissions CO_abs="402.08" CO2_abs="68555.66" HC_abs="2.71" PMx_abs="9.78" NOx_abs="24.91" fuel_abs="22224.99" electricity_abs="0.00"/>
    </tripinfo>
    <tripinfo id="veh3.6" depart="217.00" departLane="1054315844#0_1" departPos="5.10" departSpeed="10.43" departDelay="3.30" arrival="249.00" arrivalLane="1326404883_1" arrivalPos="139.02" arrivalSpeed="13.12" duration="32.00" routeLength="422.70" waitingTime="0.00" waitingCount="0" stopTime="0.00" timeLoss="2.18" rerouteNo="1" devices="tripinfo_veh3.6 routing_veh3.6 emissions_veh3.6" vType="veh_passenger" speedFactor="0.85" vaporized="">
        <emissions CO_abs="429.22" CO2_abs="72519.34" HC_abs="2.89" PMx_abs="9.73" NOx_abs="26.10" fuel_abs="23509.93" electricity_abs="0.00"/>
    </tripinfo>
    <tripinfo id="veh3.7" depart="217.00" departLane="1054315844#0_0" departPos="5.10" departSpeed="8.78" departDelay="3.30" arrival="249.00" arrivalLane="1326404883_0" arrivalPos="139.02" arrivalSpeed="15.10" duration="32.00" routeLength="422.55" waitingTime="0.00" waitingCount="0" stopTime="0.00" timeLoss="10.25" rerouteNo="1" devices="tripinfo_veh3.7 routing_veh3.7 emissions_veh3.7" vType="veh_passenger" speedFactor="1.17" vaporized="">
        <emissions CO_abs="631.97" CO2_abs="87143.28" HC_abs="4.21" PMx_abs="9.01" NOx_abs="31.10" fuel_abs="28250.66" electricity_abs="0.00"/>
    </tripinfo>
    <tripinfo id="veh3.8" depart="218.00" departLane="1054315844#0_1" departPos="5.10" departSpeed="5.51" departDelay="4.30" arrival="251.00" arrivalLane="1326404883_1" arrivalPos="139.02" arrivalSpeed="16.39" duration="33.00" routeLength="422.70" waitingTime="0.00" waitingCount="0" stopTime="0.00" timeLoss="7.44" rerouteNo="1" devices="tripinfo_veh3.8 routing_veh3.8 emissions_veh3.8" vType="veh_passenger" speedFactor="1.02" vaporized="">
        <emissions CO_abs="693.63" CO2_abs="100226.23" HC_abs="4.63" PMx_abs="10.74" NOx_abs="35.70" fuel_abs="32492.00" electricity_abs="0.00"/>
    </tripinfo>
    <tripinfo id="veh3.9" depart="218.00" departLane="1054315844#0_0" departPos="5.10" departSpeed="3.67" departDelay="4.30" arrival="251.00" arrivalLane="1326404883_0" arrivalPos="139.02" arrivalSpeed="17.19" duration="33.00" routeLength="422.55" waitingTime="0.00" waitingCount="0" stopTime="0.00" timeLoss="9.33" rerouteNo="1" devices="tripinfo_veh3.9 routing_veh3.9 emissions_veh3.9" vType="veh_passenger" speedFactor="1.10" vaporized="">
        <emissions CO_abs="929.10" CO2_abs="118878.58" HC_abs="6.17" PMx_abs="10.74" NOx_abs="41.98" fuel_abs="38538.65" electricity_abs="0.00"/>
    </tripinfo>
    <tripinfo id="veh3.10" depart="220.00" departLane="1054315844#0_1" departPos="5.10" departSpeed="6.10" departDelay="6.30" arrival="253.00" arrivalLane="1326404883_1" arrivalPos="139.02" arrivalSpeed="16.11" duration="33.00" routeLength="422.70" waitingTime="0.00" waitingCount="0" stopTime="0.00" timeLoss="6.77" rerouteNo="1" devices="tripinfo_veh3.10 routing_veh3.10 emissions_veh3.10" vType="veh_passenger" speedFactor="1.00" vaporized="">
        <emissions CO_abs="717.92" CO2_abs="99331.73" HC_abs="4.79" PMx_abs="10.41" NOx_abs="35.31" fuel_abs="32201.98" electricity_abs="0.00"/>
    </tripinfo>
    <tripinfo id="veh3.11" depart="220.00" departLane="1054315844#0_0" departPos="5.10" departSpeed="1.74" departDelay="6.30" arrival="253.00" arrivalLane="1326404883_0" arrivalPos="139.02" arrivalSpeed="16.50" duration="33.00" routeLength="422.55" waitingTime="0.00" waitingCount="0" stopTime="0.00" timeLoss="6.59" rerouteNo="1" devices="tripinfo_veh3.11 routing_veh3.11 emissions_veh3.11" vType="veh_passenger" speedFactor="1.00" vaporized="">
        <emissions CO_abs="870.13" CO2_abs="115517.72" HC_abs="5.80" PMx_abs="10.76" NOx_abs="40.63" fuel_abs="37449.13" electricity_abs="0.00"/>
    </tripinfo>
    <tripinfo id="veh3.12" depart="222.00" departLane="1054315844#0_1" departPos="5.10" departSpeed="6.49" departDelay="8.30" arrival="254.00" arrivalLane="1326404883_1" arrivalPos="139.02" arrivalSpeed="13.76" duration="32.00" routeLength="422.70" waitingTime="0.00" waitingCount="0" stopTime="0.00" timeLoss="3.59" rerouteNo="1" devices="tripinfo_veh3.12 routing_veh3.12 emissions_veh3.12" vType="veh_passenger" speedFactor="0.90" vaporized="">
        <emissions CO_abs="673.40" CO2_abs="91515.84" HC_abs="4.48" PMx_abs="9.20" NOx_abs="32.44" fuel_abs="29668.15" electricity_abs="0.00"/>
    </tripinfo>
    <tripinfo id="veh3.13" depart="223.00" departLane="1054315844#0_0" departPos="5.10" departSpeed="4.94" departDelay="9.30" arrival="254.00" arrivalLane="1326404883_0" arrivalPos="139.02" arrivalSpeed="18.08" duration="31.00" routeLength="422.55" waitingTime="0.00" waitingCount="0" stopTime="0.00" timeLoss="8.44" rerouteNo="1" devices="tripinfo_veh3.13 routing_veh3.13 emissions_veh3.13" vType="veh_passenger" speedFactor="1.14" vaporized="">
        <emissions CO_abs="1049.75" CO2_abs="118344.84" HC_abs="6.96" PMx_abs="10.05" NOx_abs="42.47" fuel_abs="38365.54" electricity_abs="0.00"/>
    </tripinfo>
    <tripinfo id="veh3.14" depart="224.00" departLane="1054315844#0_1" departPos="5.10" departSpeed="7.56" departDelay="10.30" arrival="256.00" arrivalLane="1326404883_1" arrivalPos="139.02" arrivalSpeed="15.89" duration="32.00" routeLength="422.70" waitingTime="0.00" waitingCount="0" stopTime="0.00" timeLoss="6.63" rerouteNo="1" devices="tripinfo_veh3.14 routing_veh3.14 emissions_veh3.14" vType="veh_passenger" speedFactor="1.02" vaporized="">
        <emissions CO_abs="817.05" CO2_abs="105163.60" HC_abs="5.44" PMx_abs="10.44" NOx_abs="37.60" fuel_abs="34092.55" electricity_abs="0.00"/>
    </tripinfo>
    <tripinfo id="veh3.15" depart="225.00" departLane="1054315844#0_0" departPos="5.10" departSpeed="4.30" departDelay="11.30" arrival="256.00" arrivalLane="1326404883_0" arrivalPos="139.02" arrivalSpeed="15.94" duration="31.00" routeLength="422.55" waitingTime="0.00" waitingCount="0" stopTime="0.00" timeLoss="4.26" rerouteNo="1" devices="tripinfo_veh3.15 routing_veh3.15 emissions_veh3.15" vType="veh_passenger" speedFactor="0.97" vaporized="">
        <emissions CO_abs="824.49" CO2_abs="101460.72" HC_abs="5.48" PMx_abs="9.40" NOx_abs="36.05" fuel_abs="32892.04" electricity_abs="0.00"/>
    </tripinfo>
    <tripinfo id="veh3.16" depart="226.00" departLane="1054315844#0_1" departPos="5.10" departSpeed="8.47" departDelay="12.30" arrival="257.00" arrivalLane="1326404883_1" arrivalPos="139.02" arrivalSpeed="17.14" duration="31.00" routeLength="422.70" waitingTime="0.00" waitingCount="0" stopTime="0.00" timeLoss="7.49" rerouteNo="1" devices="tripinfo_veh3.16 routing_veh3.16 emissions_veh3.16" vType="veh_passenger" speedFactor="1.08" vaporized="">
        <emissions CO_abs="879.69" CO2_abs="104211.28" HC_abs="5.84" PMx_abs="9.51" NOx_abs="37.59" fuel_abs="33783.75" electricity_abs="0.00"/>
    </tripinfo>
    <tripinfo id="veh3.17" depart="227.00" departLane="1054315844#0_0" departPos="5.10" departSpeed="4.27" departDelay="13.30" arrival="258.00" arrivalLane="1326404883_0" arrivalPos="139.02" arrivalSpeed="17.95" duration="31.00" routeLength="422.55" waitingTime="0.00" waitingCount="0" stopTime="0.00" timeLoss="7.44" rerouteNo="1" devices="tripinfo_veh3.17 routing_veh3.17 emissions_veh3.17" vType="veh_passenger" speedFactor="1.12" vaporized="">
        <emissions CO_abs="1024.85" CO2_abs="115649.74" HC_abs="6.80" PMx_abs="9.98" NOx_abs="41.58" fuel_abs="37491.83" electricity_abs="0.00"/>
    </tripinfo>
    <tripinfo id="veh3.18" depart="227.00" departLane="1054315844#0_1" departPos="5.10" departSpeed="4.02" departDelay="13.30" arrival="259.00" arrivalLane="1326404883_1" arrivalPos="139.02" arrivalSpeed="16.81" duration="32.00" routeLength="422.70" waitingTime="0.00" waitingCount="0" stopTime="0.00" timeLoss="6.61" rerouteNo="1" devices="tripinfo_veh3.18 routing_veh3.18 emissions_veh3.18" vType="veh_passenger" speedFactor="1.02" vaporized="">
        <emissions CO_abs="985.94" CO2_abs="116944.46" HC_abs="6.54" PMx_abs="9.84" NOx_abs="41.68" fuel_abs="37911.58" electricity_abs="0.00"/>
    </tripinfo>
    <tripinfo id="veh3.19" depart="229.00" departLane="1054315844#0_0" departPos="5.10" departSpeed="3.97" departDelay="15.30" arrival="259.00" arrivalLane="1326404883_0" arrivalPos="139.02" arrivalSpeed="15.76" duration="30.00" routeLength="422.55" waitingTime="0.00" waitingCount="0" stopTime="0.00" timeLoss="4.20" rerouteNo="1" devices="tripinfo_veh3.19 routing_veh3.19 emissions_veh3.19" vType="veh_passenger" speedFactor="0.99" vaporized="">
        <emissions CO_abs="687.13" CO2_abs="94364.56" HC_abs="4.60" PMx_abs="10.44" NOx_abs="33.29" fuel_abs="30591.67" electricity_abs="0.00"/>
    </tripinfo>
    <tripinfo id="veh4" depart="285.00" departLane="-1392084250_0" departPos="5.10" departSpeed="15.63" departDelay="0.07" arrival="322.00" arrivalLane="-564298126#9_0" arrivalPos="236.18" arrivalSpeed="14.39" duration="37.00" routeLength="545.36" waitingTime="0.00" waitingCount="0" stopTime="0.00" timeLoss="1.64" rerouteNo="1" devices="tripinfo_veh4 routing_veh4 emissions_veh4" vType="veh_passenger" speedFactor="0.94" vaporized="">
        <emissions CO_abs="547.04" CO2_abs="74730.95" HC_abs="3.68" PMx_abs="10.68" NOx_abs="27.61" fuel_abs="24226.88" electricity_abs="0.00"/>
    </tripinfo>
    <tripinfo id="veh4.1" depart="285.00" departLane="-1392084250_1" departPos="5.10" departSpeed="14.71" departDelay="0.07" arrival="324.00" arrivalLane="-564298126#9_1" arrivalPos="236.18" arrivalSpeed="14.23" duration="39.00" routeLength="544.72" waitingTime="0.00" waitingCount="0" stopTime="0.00" timeLoss="1.36" rerouteNo="1" devices="tripinfo_veh4.1 routing_veh4.1 emissions_veh4.1" vType="veh_passenger" speedFactor="0.88" vaporized="">
        <emissions CO_abs="549.15" CO2_abs="82931.78" HC_abs="3.70" PMx_abs="11.78" NOx_abs="30.36" fuel_abs="26885.52" electricity_abs="0.00"/>
    </tripinfo>
    <tripinfo id="veh4.2" depart="286.00" departLane="-1392084250_0" departPos="5.10" departSpeed="13.26" departDelay="1.07" arrival="325.00" arrivalLane="-564298126#9_0" arrivalPos="236.18" arrivalSpeed="15.04" duration="39.00" routeLength="545.36" waitingTime="0.00" waitingCount="0" stopTime="0.00" timeLoss="2.21" rerouteNo="1" devices="tripinfo_veh4.2 routing_veh4.2 emissions_veh4.2" vType="veh_passenger" speedFactor="0.91" vaporized="">