<?xml version="1.0" encoding="UTF-8"?>

<!-- generated on 2025-09-02 21:34:59 by Eclipse SUMO netedit Version 1.24.0
<neteditConfiguration xmlns:xsi="http://www.w3.org/2001/XMLSchema-instance" xsi:noNamespaceSchemaLocation="http://sumo.dlr.de/xsd/neteditConfiguration.xsd">

    <input>
        <sumocfg-file value="C:\Users\kgaqu\OneDrive\Documents\4th Year\Capstone 2\v10\osm_importer\osm_scenarios\2025-09-02-21-34-32\osm.sumocfg"/>
        <additional-files value="C:\Users\kgaqu\OneDrive\Documents\4th Year\Capstone 2\v10\osm_importer\osm_scenarios\2025-09-02-21-34-32\output.add.xml"/>
        <meandata-files value="C:\Users\kgaqu\OneDrive\Documents\4th Year\Capstone 2\v10\osm_importer\osm_scenarios\2025-09-02-21-34-32\output.add.xml"/>
        <sumo-net-file value="C:\Users\kgaqu\OneDrive\Documents\4th Year\Capstone 2\v10\osm_importer\osm_scenarios\2025-09-02-21-34-32\osm.net.xml.gz"/>
    </input>

    <output>
        <output-file value="C:\Users\kgaqu\OneDrive\Documents\4th Year\Capstone 2\v10\osm_importer\osm_scenarios\2025-09-02-21-34-32\osm.net.xml.gz"/>
        <output.street-names value="true"/>
    </output>

    <processing>
        <geometry.min-radius.fix.railways value="false"/>
        <geometry.avoid-overlap value="false"/>
        <geometry.max-grade.fix value="false"/>
        <offset.disable-normalization value="true"/>
        <lefthand value="0"/>
    </processing>

    <junctions>
        <no-internal-links value="false"/>
        <no-turnarounds value="true"/>
        <junctions.corner-detail value="5"/>
        <junctions.limit-turn-speed value="5.50"/>
        <rectangular-lane-cut value="0"/>
    </junctions>

    <pedestrian>
        <walkingareas value="1"/>
    </pedestrian>

    <netedit>
        <ignore.routeelements value="false"/>
    </netedit>

</neteditConfiguration>
-->

<net version="1.20" junctionCornerDetail="5" walkingareas="true" limitTurnSpeed="5.50" avoidOverlap="0" xmlns:xsi="http://www.w3.org/2001/XMLSchema-instance" xsi:noNamespaceSchemaLocation="http://sumo.dlr.de/xsd/net_file.xsd">

    <location netOffset="-279709.73,-1598844.64" convBoundary="162.69,0.00,702.99,974.89" origBoundary="120.956354,14.453371,120.962854,14.462171" projParameter="+proj=utm +zone=51 +ellps=WGS84 +datum=WGS84 +units=m +no_defs"/>

    <type id="highway.primary" priority="12" numLanes="2" speed="13.89" disallow="pedestrian tram rail_urban rail rail_electric rail_fast ship container cable_car subway aircraft wheelchair scooter drone" oneway="0" sidewalkWidth="3.00"/>
    <type id="highway.trunk" priority="13" numLanes="2" speed="13.89" disallow="pedestrian bicycle tram rail_urban rail rail_electric rail_fast ship container cable_car subway aircraft wheelchair scooter drone" oneway="0"/>

    <edge id=":27928553_0" function="internal">
        <lane id=":27928553_0_0" index="0" disallow="pedestrian bicycle tram rail_urban rail rail_electric rail_fast ship container cable_car subway aircraft wheelchair scooter drone" speed="3.65" length="4.67" shape="703.85,934.42 704.43,935.74 704.34,936.63 703.57,937.09 702.13,937.12"/>
    </edge>
    <edge id=":27928553_w0" function="walkingarea">
        <lane id=":27928553_w0_0" index="0" allow="pedestrian" speed="2.78" length="21.20" width="2.00" shape="697.83,943.86 696.75,945.55 709.23,925.99 708.15,927.68"/>
    </edge>
    <edge id=":299178733_0" function="internal">
        <lane id=":299178733_0_0" index="0" disallow="pedestrian bicycle tram rail_urban rail rail_electric rail_fast ship container cable_car subway aircraft wheelchair scooter drone" speed="16.67" length="3.00" shape="354.38,806.89 354.62,803.89"/>
        <lane id=":299178733_0_1" index="1" disallow="pedestrian bicycle tram rail_urban rail rail_electric rail_fast ship container cable_car subway aircraft wheelchair scooter drone" speed="16.67" length="3.00" shape="357.57,807.13 357.81,804.15"/>
        <lane id=":299178733_0_2" index="2" disallow="pedestrian bicycle tram rail_urban rail rail_electric rail_fast ship container cable_car subway aircraft wheelchair scooter drone" speed="16.67" length="3.00" shape="360.76,807.38 361.00,804.40"/>
    </edge>
    <edge id=":299178733_w0" function="walkingarea">
        <lane id=":299178733_w0_0" index="0" allow="pedestrian" speed="2.78" length="3.98" width="3.20" shape="362.60,804.53 359.41,804.27 356.22,804.02 353.03,803.76 350.79,806.62 352.79,806.77"/>
    </edge>
    <edge id=":5355789201_0" function="internal">
        <lane id=":5355789201_0_0" index="0" disallow="pedestrian tram rail_urban rail rail_electric rail_fast ship container cable_car subway aircraft wheelchair scooter drone" speed="16.67" length="8.21" shape="388.37,625.82 388.24,628.22 388.53,629.89 388.83,631.56 388.71,633.96"/>
        <lane id=":5355789201_0_1" index="1" disallow="pedestrian tram rail_urban rail rail_electric rail_fast ship container cable_car subway aircraft wheelchair scooter drone" speed="16.67" length="8.21" shape="385.21,625.32 385.08,627.73 385.37,629.39 385.67,631.06 385.55,633.47"/>
        <lane id=":5355789201_0_2" index="2" disallow="pedestrian tram rail_urban rail rail_electric rail_fast ship container cable_car subway aircraft wheelchair scooter drone" speed="16.67" length="8.21" shape="385.21,625.32 384.58,627.65 383.79,629.15 383.00,630.65 382.39,632.98"/>
    </edge>
    <edge id=":5405779449_0" function="internal">
        <lane id=":5405779449_0_0" index="0" disallow="bicycle tram rail_urban rail rail_electric rail_fast ship container cable_car subway aircraft wheelchair scooter drone" speed="16.67" length="8.74" shape="333.20,645.35 332.32,643.02 332.43,641.15 332.53,639.28 331.63,636.96"/>
        <lane id=":5405779449_0_1" index="1" disallow="bicycle tram rail_urban rail rail_electric rail_fast ship container cable_car subway aircraft wheelchair scooter drone" speed="16.67" length="8.74" shape="335.91,643.64 335.02,641.30 335.13,639.42 335.22,637.54 334.31,635.22"/>
    </edge>
    <edge id=":5405779449_2" function="internal">
        <lane id=":5405779449_2_0" index="0" disallow="bicycle tram rail_urban rail rail_electric rail_fast ship container cable_car subway aircraft wheelchair scooter drone" speed="16.67" length="8.57" shape="339.68,631.73 341.45,633.55 343.22,634.26 344.98,634.98 346.73,636.80"/>
        <lane id=":5405779449_2_1" index="1" disallow="bicycle tram rail_urban rail rail_electric rail_fast ship container cable_car subway aircraft wheelchair scooter drone" speed="16.67" length="8.57" shape="336.99,633.48 338.76,635.28 340.53,635.98 342.28,636.70 344.02,638.51"/>
        <lane id=":5405779449_2_2" index="2" disallow="bicycle tram rail_urban rail rail_electric rail_fast ship container cable_car subway aircraft wheelchair scooter drone" speed="16.67" length="8.57" shape="336.99,633.48 341.32,640.22"/>
    </edge>
    <edge id=":5405779449_w0" function="walkingarea">
        <lane id=":5405779449_w0_0" index="0" allow="pedestrian" speed="2.78" length="12.17" width="19.20" shape="331.85,646.21 348.08,635.95 345.74,633.81 344.57,633.40 343.39,632.99 342.20,632.25 341.02,630.86 330.29,637.84 331.22,640.79 331.08,642.01 330.95,643.23 331.10,644.58"/>
    </edge>
    <edge id=":5529787367_0" function="internal">
        <lane id=":5529787367_0_0" index="0" disallow="bicycle tram rail_urban rail rail_electric rail_fast ship container cable_car subway aircraft wheelchair scooter drone" speed="3.65" length="4.67" shape="161.25,288.60 161.44,287.17 161.98,286.45 162.88,286.46 164.13,287.18"/>
    </edge>
    <edge id=":5529787367_w0" function="walkingarea">
        <lane id=":5529787367_w0_0" index="0" allow="pedestrian" speed="2.78" length="9.60" width="12.80" shape="162.69,287.89 168.43,285.06 156.95,290.72 162.69,287.89"/>
    </edge>
    <edge id=":6160787427_0" function="internal">
        <lane id=":6160787427_0_0" index="0" disallow="pedestrian bicycle tram rail_urban rail rail_electric rail_fast ship container cable_car subway aircraft wheelchair scooter drone" speed="16.67" length="2.98" shape="368.37,862.35 368.16,865.38"/>
        <lane id=":6160787427_0_1" index="1" disallow="pedestrian bicycle tram rail_urban rail rail_electric rail_fast ship container cable_car subway aircraft wheelchair scooter drone" speed="16.67" length="2.98" shape="365.17,862.17 364.97,865.14"/>
        <lane id=":6160787427_0_2" index="2" disallow="pedestrian bicycle tram rail_urban rail rail_electric rail_fast ship container cable_car subway aircraft wheelchair scooter drone" speed="16.67" length="2.98" shape="361.98,861.99 361.78,864.91"/>
    </edge>
    <edge id=":6160787427_w0" function="walkingarea">
        <lane id=":6160787427_w0_0" index="0" allow="pedestrian" speed="2.78" length="4.01" width="3.20" shape="369.76,865.50 371.75,865.64 369.97,862.44 366.77,862.26 363.58,862.08 360.38,861.90"/>
    </edge>
    <edge id=":cluster_12886426623_5437232245_5437232246_0" function="internal">
        <lane id=":cluster_12886426623_5437232245_5437232246_0_0" index="0" disallow="pedestrian bicycle tram rail_urban rail rail_electric rail_fast ship container cable_car subway aircraft wheelchair scooter drone" speed="6.20" length="12.46" shape="385.02,715.93 382.07,713.63 379.84,713.42 378.33,715.31 377.54,719.29"/>
    </edge>
    <edge id=":cluster_12886426623_5437232245_5437232246_1" function="internal">
        <lane id=":cluster_12886426623_5437232245_5437232246_1_0" index="0" disallow="pedestrian bicycle tram rail_urban rail rail_electric rail_fast ship container cable_car subway aircraft wheelchair scooter drone" speed="16.67" length="57.46" shape="385.02,715.93 374.69,704.57 365.06,692.51 356.54,680.76 349.54,670.32"/>
        <lane id=":cluster_12886426623_5437232245_5437232246_1_1" index="1" disallow="pedestrian bicycle tram rail_urban rail rail_electric rail_fast ship container cable_car subway aircraft wheelchair scooter drone" speed="16.67" length="57.46" shape="387.45,713.84 377.16,702.53 367.62,690.59 359.18,678.95 352.21,668.56"/>
        <lane id=":cluster_12886426623_5437232245_5437232246_1_2" index="2" disallow="pedestrian bicycle tram rail_urban rail rail_electric rail_fast ship container cable_car subway aircraft wheelchair scooter drone" speed="16.67" length="57.46" shape="389.88,711.75 379.63,700.50 370.17,688.67 361.82,677.15 354.89,666.81"/>
    </edge>
    <edge id=":cluster_12886426623_5437232245_5437232246_4" function="internal">
        <lane id=":cluster_12886426623_5437232245_5437232246_4_0" index="0" disallow="pedestrian bicycle tram rail_urban rail rail_electric rail_fast ship container cable_car subway aircraft wheelchair scooter drone" speed="16.67" length="12.04" shape="389.88,711.75 382.31,702.39"/>
    </edge>
    <edge id=":cluster_12886426623_5437232245_5437232246_5" function="internal">
        <lane id=":cluster_12886426623_5437232245_5437232246_5_0" index="0" disallow="pedestrian bicycle tram rail_urban rail rail_electric rail_fast ship container cable_car subway aircraft wheelchair scooter drone" speed="3.65" length="1.45" shape="389.88,711.75 389.71,710.31"/>
    </edge>
    <edge id=":cluster_12886426623_5437232245_5437232246_23" function="internal">
        <lane id=":cluster_12886426623_5437232245_5437232246_23_0" index="0" disallow="pedestrian bicycle tram rail_urban rail rail_electric rail_fast ship container cable_car subway aircraft wheelchair scooter drone" speed="16.67" length="44.15" shape="382.31,702.39 380.70,700.41 374.60,688.10 371.58,674.82 371.63,660.58"/>
    </edge>
    <edge id=":cluster_12886426623_5437232245_5437232246_24" function="internal">
        <lane id=":cluster_12886426623_5437232245_5437232246_24_0" index="0" disallow="pedestrian bicycle tram rail_urban rail rail_electric rail_fast ship container cable_car subway aircraft wheelchair scooter drone" speed="3.65" length="3.24" shape="389.71,710.31 390.05,709.49 390.92,709.27 392.31,709.66"/>
    </edge>
    <edge id=":cluster_12886426623_5437232245_5437232246_6" function="internal">
        <lane id=":cluster_12886426623_5437232245_5437232246_6_0" index="0" disallow="pedestrian bicycle tram rail_urban rail rail_electric rail_fast ship container cable_car subway aircraft wheelchair scooter drone" speed="16.67" length="47.06" shape="384.39,661.97 383.67,674.61 385.57,686.08 390.07,696.36 397.18,705.47"/>
    </edge>
    <edge id=":cluster_12886426623_5437232245_5437232246_7" function="internal">
        <lane id=":cluster_12886426623_5437232245_5437232246_7_0" index="0" disallow="pedestrian bicycle tram rail_urban rail rail_electric rail_fast ship container cable_car subway aircraft wheelchair scooter drone" speed="16.67" length="57.80" shape="384.39,661.97 377.54,719.29"/>
        <lane id=":cluster_12886426623_5437232245_5437232246_7_1" index="1" disallow="pedestrian bicycle tram rail_urban rail rail_electric rail_fast ship container cable_car subway aircraft wheelchair scooter drone" speed="16.67" length="57.80" shape="381.20,661.63 374.35,719.02"/>
        <lane id=":cluster_12886426623_5437232245_5437232246_7_2" index="2" disallow="pedestrian bicycle tram rail_urban rail rail_electric rail_fast ship container cable_car subway aircraft wheelchair scooter drone" speed="16.67" length="57.80" shape="378.02,661.28 371.16,718.75"/>
    </edge>
    <edge id=":cluster_12886426623_5437232245_5437232246_10" function="internal">
        <lane id=":cluster_12886426623_5437232245_5437232246_10_0" index="0" disallow="pedestrian bicycle tram rail_urban rail rail_electric rail_fast ship container cable_car subway aircraft wheelchair scooter drone" speed="9.23" length="10.46" shape="378.02,661.28 374.57,669.21 373.04,670.18"/>
    </edge>
    <edge id=":cluster_12886426623_5437232245_5437232246_11" function="internal">
        <lane id=":cluster_12886426623_5437232245_5437232246_11_0" index="0" disallow="pedestrian bicycle tram rail_urban rail rail_electric rail_fast ship container cable_car subway aircraft wheelchair scooter drone" speed="4.75" length="6.01" shape="378.02,661.28 376.16,663.50 374.48,664.12 373.37,663.41"/>
    </edge>
    <edge id=":cluster_12886426623_5437232245_5437232246_25" function="internal">
        <lane id=":cluster_12886426623_5437232245_5437232246_25_0" index="0" disallow="pedestrian bicycle tram rail_urban rail rail_electric rail_fast ship container cable_car subway aircraft wheelchair scooter drone" speed="9.23" length="21.17" shape="373.04,670.18 368.40,673.10 361.25,672.47 354.89,666.81"/>
    </edge>
    <edge id=":cluster_12886426623_5437232245_5437232246_26" function="internal">
        <lane id=":cluster_12886426623_5437232245_5437232246_26_0" index="0" disallow="pedestrian bicycle tram rail_urban rail rail_electric rail_fast ship container cable_car subway aircraft wheelchair scooter drone" speed="4.75" length="3.37" shape="373.37,663.41 372.97,663.15 371.63,660.58"/>
    </edge>
    <edge id=":cluster_12886426623_5437232245_5437232246_12" function="internal">
        <lane id=":cluster_12886426623_5437232245_5437232246_12_0" index="0" disallow="pedestrian bicycle tram rail_urban rail rail_electric rail_fast ship container cable_car subway aircraft wheelchair scooter drone" speed="5.45" length="2.95" shape="362.92,661.55 364.77,663.86"/>
    </edge>
    <edge id=":cluster_12886426623_5437232245_5437232246_13" function="internal">
        <lane id=":cluster_12886426623_5437232245_5437232246_13_0" index="0" disallow="pedestrian bicycle tram rail_urban rail rail_electric rail_fast ship container cable_car subway aircraft wheelchair scooter drone" speed="16.67" length="56.20" shape="362.92,661.55 369.73,671.73 377.83,682.90 387.04,694.38 397.18,705.47"/>
        <lane id=":cluster_12886426623_5437232245_5437232246_13_1" index="1" disallow="pedestrian bicycle tram rail_urban rail rail_electric rail_fast ship container cable_car subway aircraft wheelchair scooter drone" speed="16.67" length="56.20" shape="360.25,663.31 367.09,673.54 375.28,684.82 384.57,696.42 394.74,707.56"/>
        <lane id=":cluster_12886426623_5437232245_5437232246_13_2" index="2" disallow="pedestrian bicycle tram rail_urban rail rail_electric rail_fast ship container cable_car subway aircraft wheelchair scooter drone" speed="16.67" length="56.20" shape="357.57,665.06 364.46,675.34 372.72,686.75 382.10,698.46 392.31,709.66"/>
    </edge>
    <edge id=":cluster_12886426623_5437232245_5437232246_16" function="internal">
        <lane id=":cluster_12886426623_5437232245_5437232246_16_0" index="0" disallow="bicycle tram rail_urban rail rail_electric rail_fast ship container cable_car subway aircraft wheelchair scooter drone" speed="16.67" length="5.41" shape="357.57,665.06 359.97,669.91"/>
    </edge>
    <edge id=":cluster_12886426623_5437232245_5437232246_17" function="internal">
        <lane id=":cluster_12886426623_5437232245_5437232246_17_0" index="0" disallow="bicycle tram rail_urban rail rail_electric rail_fast ship container cable_car subway aircraft wheelchair scooter drone" speed="3.65" length="1.44" shape="357.57,665.06 357.56,666.50"/>
    </edge>
    <edge id=":cluster_12886426623_5437232245_5437232246_27" function="internal">
        <lane id=":cluster_12886426623_5437232245_5437232246_27_0" index="0" disallow="pedestrian bicycle tram rail_urban rail rail_electric rail_fast ship container cable_car subway aircraft wheelchair scooter drone" speed="5.45" length="7.18" shape="364.77,663.86 365.00,664.15 366.61,664.80 367.76,663.49 368.45,660.23"/>
    </edge>
    <edge id=":cluster_12886426623_5437232245_5437232246_28" function="internal">
        <lane id=":cluster_12886426623_5437232245_5437232246_28_0" index="0" disallow="bicycle tram rail_urban rail rail_electric rail_fast ship container cable_car subway aircraft wheelchair scooter drone" speed="16.67" length="50.61" shape="359.97,669.91 363.31,676.66 367.90,691.02 370.72,705.82 371.16,718.75"/>
    </edge>
    <edge id=":cluster_12886426623_5437232245_5437232246_29" function="internal">
        <lane id=":cluster_12886426623_5437232245_5437232246_29_0" index="0" disallow="bicycle tram rail_urban rail rail_electric rail_fast ship container cable_car subway aircraft wheelchair scooter drone" speed="3.65" length="3.23" shape="357.56,666.50 357.11,667.27 356.22,667.38 354.89,666.81"/>
    </edge>
    <edge id=":cluster_12886426623_5437232245_5437232246_18" function="internal">
        <lane id=":cluster_12886426623_5437232245_5437232246_18_0" index="0" disallow="bicycle tram rail_urban rail rail_electric rail_fast ship container cable_car subway aircraft wheelchair scooter drone" speed="16.67" length="49.67" shape="361.13,717.89 361.03,705.93 358.89,693.23 354.97,680.97 349.54,670.32"/>
    </edge>
    <edge id=":cluster_12886426623_5437232245_5437232246_19" function="internal">
        <lane id=":cluster_12886426623_5437232245_5437232246_19_0" index="0" disallow="pedestrian bicycle tram rail_urban rail rail_electric rail_fast ship container cable_car subway aircraft wheelchair scooter drone" speed="16.67" length="58.08" shape="361.13,717.89 368.45,660.23"/>
        <lane id=":cluster_12886426623_5437232245_5437232246_19_1" index="1" disallow="pedestrian bicycle tram rail_urban rail rail_electric rail_fast ship container cable_car subway aircraft wheelchair scooter drone" speed="16.67" length="58.08" shape="364.32,718.16 371.63,660.58"/>
    </edge>
    <edge id=":cluster_12886426623_5437232245_5437232246_21" function="internal">
        <lane id=":cluster_12886426623_5437232245_5437232246_21_0" index="0" disallow="pedestrian bicycle tram rail_urban rail rail_electric rail_fast ship container cable_car subway aircraft wheelchair scooter drone" speed="9.92" length="5.91" shape="367.51,718.43 369.37,712.83"/>
    </edge>
    <edge id=":cluster_12886426623_5437232245_5437232246_22" function="internal">
        <lane id=":cluster_12886426623_5437232245_5437232246_22_0" index="0" disallow="bicycle tram rail_urban rail rail_electric rail_fast ship container cable_car subway aircraft wheelchair scooter drone" speed="3.83" length="2.04" shape="367.51,718.43 368.54,717.14 368.90,717.00"/>
    </edge>
    <edge id=":cluster_12886426623_5437232245_5437232246_30" function="internal">
        <lane id=":cluster_12886426623_5437232245_5437232246_30_0" index="0" disallow="pedestrian bicycle tram rail_urban rail rail_electric rail_fast ship container cable_car subway aircraft wheelchair scooter drone" speed="9.92" length="28.49" shape="369.37,712.83 370.49,709.46 376.55,704.69 384.29,704.59 392.31,709.66"/>
    </edge>
    <edge id=":cluster_12886426623_5437232245_5437232246_31" function="internal">
        <lane id=":cluster_12886426623_5437232245_5437232246_31_0" index="0" disallow="bicycle tram rail_urban rail rail_electric rail_fast ship container cable_car subway aircraft wheelchair scooter drone" speed="3.83" length="3.32" shape="368.90,717.00 369.49,716.76 370.37,717.30 371.16,718.75"/>
    </edge>
    <edge id=":cluster_12886426623_5437232245_5437232246_c0" function="crossing" crossingEdges="555020953#0">
        <lane id=":cluster_12886426623_5437232245_5437232246_c0_0" index="0" allow="pedestrian" speed="2.78" length="9.60" width="4.00" shape="376.13,663.01 385.67,664.19" outlineShape="376.38,661.03 385.91,662.21 385.58,666.20 375.89,665.00 376.38,661.03 375.89,665.00"/>
    </edge>
    <edge id=":cluster_12886426623_5437232245_5437232246_c1" function="crossing" crossingEdges="1054315845#0">
        <lane id=":cluster_12886426623_5437232245_5437232246_c1_0" index="0" allow="pedestrian" speed="2.78" length="6.40" width="4.00" shape="366.65,662.05 373.01,662.74" outlineShape="366.86,660.06 373.23,660.75 372.79,664.73 373.23,660.75 372.79,664.73 366.43,664.04 366.65,664.06"/>
    </edge>
    <edge id=":cluster_12886426623_5437232245_5437232246_w0" function="walkingarea">
        <lane id=":cluster_12886426623_5437232245_5437232246_w0_0" index="0" allow="pedestrian" speed="2.78" length="39.61" width="4.00" shape="366.86,660.06 364.27,660.69 361.58,662.42 358.90,664.17 356.22,665.93 353.55,667.68 350.87,669.43 348.19,671.19 359.54,717.75 362.73,718.03 365.92,718.30 369.10,718.58 369.57,718.61 372.76,718.88 375.95,719.15 379.14,719.43 382.33,718.34 383.76,716.93 377.60,709.59 372.70,701.32 369.18,692.22 367.03,682.32 366.26,671.60"/>
    </edge>
    <edge id=":cluster_12886426623_5437232245_5437232246_w1" function="walkingarea">
        <lane id=":cluster_12886426623_5437232245_5437232246_w1_0" index="0" allow="pedestrian" speed="2.78" length="41.81" width="4.00" shape="398.44,704.47 399.86,703.07 385.91,662.21 385.22,670.51 385.60,678.30 387.10,685.58 389.72,692.35 393.45,698.60"/>
    </edge>
    <edge id=":cluster_12886426623_5437232245_5437232246_w2" function="walkingarea">
        <lane id=":cluster_12886426623_5437232245_5437232246_w2_0" index="0" allow="pedestrian" speed="2.78" length="3.14" width="4.00" shape="372.79,664.73 373.23,660.75 376.38,661.03 375.89,665.00"/>
    </edge>
    <edge id=":cluster_5405741115_5405749344_0" function="internal">
        <lane id=":cluster_5405741115_5405749344_0_0" index="0" disallow="pedestrian bicycle tram rail_urban rail rail_electric rail_fast ship container cable_car subway aircraft wheelchair scooter drone" speed="11.00" length="42.36" shape="403.53,734.68 392.24,725.89 383.84,723.95 378.34,728.86 375.72,740.63"/>
    </edge>
    <edge id=":cluster_5405741115_5405749344_1" function="internal">
        <lane id=":cluster_5405741115_5405749344_1_0" index="0" disallow="pedestrian bicycle tram rail_urban rail rail_electric rail_fast ship container cable_car subway aircraft wheelchair scooter drone" speed="16.67" length="2.29" shape="403.53,734.68 401.86,732.99"/>
        <lane id=":cluster_5405741115_5405749344_1_1" index="1" disallow="pedestrian bicycle tram rail_urban rail rail_electric rail_fast ship container cable_car subway aircraft wheelchair scooter drone" speed="16.67" length="2.29" shape="405.75,732.37 404.14,730.75"/>
        <lane id=":cluster_5405741115_5405749344_1_2" index="2" disallow="pedestrian bicycle tram rail_urban rail rail_electric rail_fast ship container cable_car subway aircraft wheelchair scooter drone" speed="16.67" length="2.29" shape="407.96,730.06 406.42,728.50"/>
    </edge>
    <edge id=":cluster_5405741115_5405749344_4" function="internal">
        <lane id=":cluster_5405741115_5405749344_4_0" index="0" disallow="pedestrian bicycle tram rail_urban rail rail_electric rail_fast ship container cable_car subway aircraft wheelchair scooter drone" speed="3.65" length="1.44" shape="407.96,730.06 407.65,728.66"/>
    </edge>
    <edge id=":cluster_5405741115_5405749344_13" function="internal">
        <lane id=":cluster_5405741115_5405749344_13_0" index="0" disallow="pedestrian bicycle tram rail_urban rail rail_electric rail_fast ship container cable_car subway aircraft wheelchair scooter drone" speed="3.65" length="3.23" shape="407.65,728.66 407.92,727.80 408.76,727.50 410.18,727.76"/>
    </edge>
    <edge id=":cluster_5405741115_5405749344_5" function="internal">
        <lane id=":cluster_5405741115_5405749344_5_0" index="0" disallow="pedestrian bicycle tram rail_urban rail rail_electric rail_fast ship container cable_car subway aircraft wheelchair scooter drone" speed="16.67" length="2.03" shape="413.25,721.75 414.61,723.14"/>
        <lane id=":cluster_5405741115_5405749344_5_1" index="1" disallow="pedestrian bicycle tram rail_urban rail rail_electric rail_fast ship container cable_car subway aircraft wheelchair scooter drone" speed="16.67" length="2.03" shape="410.97,724.00 412.39,725.45"/>
        <lane id=":cluster_5405741115_5405749344_5_2" index="2" disallow="pedestrian bicycle tram rail_urban rail rail_electric rail_fast ship container cable_car subway aircraft wheelchair scooter drone" speed="16.67" length="2.03" shape="408.69,726.25 410.18,727.76"/>
    </edge>
    <edge id=":cluster_5405741115_5405749344_8" function="internal">
        <lane id=":cluster_5405741115_5405749344_8_0" index="0" disallow="pedestrian bicycle tram rail_urban rail rail_electric rail_fast ship container cable_car subway aircraft wheelchair scooter drone" speed="16.67" length="1.35" shape="408.69,726.25 407.43,726.74"/>
    </edge>
    <edge id=":cluster_5405741115_5405749344_9" function="internal">
        <lane id=":cluster_5405741115_5405749344_9_0" index="0" disallow="pedestrian bicycle tram rail_urban rail rail_electric rail_fast ship container cable_car subway aircraft wheelchair scooter drone" speed="3.65" length="1.44" shape="408.69,726.25 408.97,727.67"/>
    </edge>
    <edge id=":cluster_5405741115_5405749344_14" function="internal">
        <lane id=":cluster_5405741115_5405749344_14_0" index="0" disallow="pedestrian bicycle tram rail_urban rail rail_electric rail_fast ship container cable_car subway aircraft wheelchair scooter drone" speed="16.67" length="37.47" shape="407.43,726.74 372.53,740.38"/>
    </edge>
    <edge id=":cluster_5405741115_5405749344_15" function="internal">
        <lane id=":cluster_5405741115_5405749344_15_0" index="0" disallow="pedestrian bicycle tram rail_urban rail rail_electric rail_fast ship container cable_car subway aircraft wheelchair scooter drone" speed="3.65" length="3.23" shape="408.97,727.67 408.68,728.51 407.83,728.79 406.42,728.50"/>
    </edge>
    <edge id=":cluster_5405741115_5405749344_10" function="internal">
        <lane id=":cluster_5405741115_5405749344_10_0" index="0" disallow="bicycle tram rail_urban rail rail_electric rail_fast ship container cable_car subway aircraft wheelchair scooter drone" speed="16.67" length="1.98" shape="375.89,738.68 375.72,740.63"/>
        <lane id=":cluster_5405741115_5405749344_10_1" index="1" disallow="bicycle tram rail_urban rail rail_electric rail_fast ship container cable_car subway aircraft wheelchair scooter drone" speed="16.67" length="1.98" shape="372.70,738.41 372.53,740.38"/>
        <lane id=":cluster_5405741115_5405749344_10_2" index="2" disallow="bicycle tram rail_urban rail rail_electric rail_fast ship container cable_car subway aircraft wheelchair scooter drone" speed="16.67" length="1.98" shape="369.51,738.14 369.34,740.13"/>
    </edge>
    <edge id=":cluster_5405741115_5405749344_c0" function="crossing" crossingEdges="653727192 -560538898#1">
        <lane id=":cluster_5405741115_5405749344_c0_0" index="0" allow="pedestrian" speed="2.78" length="19.20" width="4.00" shape="414.27,720.60 400.98,734.45" outlineShape="415.72,721.98 402.42,735.84 398.33,735.67 377.48,738.82 374.29,738.54 371.10,738.27 367.92,738.00 367.74,740.01 370.93,740.26 374.13,740.50 377.32,740.75 401.04,737.28 402.35,735.91 399.54,733.07 412.83,719.21 415.72,721.98 417.10,720.54 415.81,719.23 414.39,720.63 412.83,719.21"/>
    </edge>
    <edge id=":cluster_5405741115_5405749344_w0" function="walkingarea">
        <lane id=":cluster_5405741115_5405749344_w0_0" index="0" allow="pedestrian" speed="2.78" length="16.08" width="4.00" shape="400.72,734.12 399.30,735.52 377.48,738.82 374.29,738.54 371.10,738.27 367.92,738.00 367.74,740.01 370.93,740.26 374.13,740.50 377.32,740.75 401.04,737.28 402.42,735.84 399.54,733.07"/>
    </edge>
    <edge id=":cluster_5405741115_5405749344_w1" function="walkingarea">
        <lane id=":cluster_5405741115_5405749344_w1_0" index="0" allow="pedestrian" speed="2.78" length="1.72" width="4.00" shape="412.83,719.21 415.72,721.98 417.10,720.54 415.81,719.23 414.39,720.63"/>
    </edge>

    <edge id="-560538898#1" from="27928553" to="cluster_5405741115_5405749344" name="Aguinaldo Highway" priority="13" type="highway.trunk" shape="702.99,935.77 684.97,924.27 627.14,887.04 593.87,865.57 560.57,844.43 558.28,842.93 555.35,841.01 536.35,828.44 524.80,820.70 501.47,804.51 483.91,792.32 473.95,785.50 466.76,779.98 462.39,776.53 447.58,764.72 432.77,751.67 420.43,739.81 409.07,728.91">