<?xml version="1.0" encoding="UTF-8"?>

<!-- generated on 2025-10-02 19:04:25 by Eclipse SUMO GUI Version 1.24.0
<sumoConfiguration xmlns:xsi="http://www.w3.org/2001/XMLSchema-instance" xsi:noNamespaceSchemaLocation="http://sumo.dlr.de/xsd/sumoConfiguration.xsd">

    <input>
        <net-file value="osm.net.xml.gz"/>
        <route-files value="osm.bus.trips.xml,osm.motorcycle.trips.xml,osm.passenger.trips.xml,osm.truck.trips.xml"/>
        <additional-files value="osm.poly.xml.gz,output.add.xml"/>
    </input>

    <output>
        <emission-output value="SM%20Molino%20Area_emissions.xml"/>
        <summary-output value="SM%20Molino%20Area_summary.xml"/>
        <tripinfo-output value="tripinfos.xml"/>
        <edgedata-output value="SM%20Molino%20Area_edgedata.xml"/>
        <statistic-output value="stats.xml"/>
    </output>

    <processing>
        <ignore-route-errors value="true"/>
        <tls.actuated.jam-threshold value="30"/>
    </processing>

    <routing>
        <device.rerouting.adaptation-steps value="18"/>
        <device.rerouting.adaptation-interval value="10"/>
    </routing>

    <report>
        <verbose value="true"/>
        <duration-log.statistics value="true"/>
        <no-step-log value="true"/>
    </report>

    <gui_only>
        <gui-settings-file value="osm.view.xml"/>
    </gui_only>

</sumoConfiguration>
-->

<tripinfos xmlns:xsi="http://www.w3.org/2001/XMLSchema-instance" xsi:noNamespaceSchemaLocation="http://sumo.dlr.de/xsd/tripinfo_file.xsd">
    <tripinfo id="motorcycle0" depart="0.00" departLane="158466192#0_0" departPos="2.30" departSpeed="0.00" departDelay="0.00" arrival="17.00" arrivalLane="561748193_1" arrivalPos="211.72" arrivalSpeed="16.64" duration="17.00" routeLength="241.96" waitingTime="0.00" waitingCount="0" stopTime="0.00" timeLoss="2.77" rerouteNo="0" devices="tripinfo_motorcycle0 routing_motorcycle0 emissions_motorcycle0" vType="motorcycle_motorcycle" speedFactor="1.06" vaporized="">
        <emissions CO_abs="2028.02" CO2_abs="42289.10" HC_abs="440.89" PMx_abs="8.08" NOx_abs="76.91" fuel_abs="13712.13" electricity_abs="0.00"/>
    </tripinfo>
    <tripinfo id="bus0" depart="0.00" departLane="580815653#0_0" departPos="12.10" departSpeed="16.67" departDelay="0.00" arrival="58.00" arrivalLane="183689805#0_0" arrivalPos="250.25" arrivalSpeed="16.13" duration="58.00" routeLength="696.70" waitingTime="4.00" waitingCount="1" stopTime="0.00" timeLoss="14.95" rerouteNo="0" devices="tripinfo_bus0 routing_bus0 emissions_bus0" vType="bus_bus" speedFactor="1.00" vaporized="">
        <emissions CO_abs="149.02" CO2_abs="834103.53" HC_abs="14.32" PMx_abs="96.83" NOx_abs="327.11" fuel_abs="268053.14" electricity_abs="0.00"/>
    </tripinfo>
    <tripinfo id="veh0" depart="0.00" departLane="580815653#0_1" departPos="5.10" departSpeed="16.84" departDelay="0.00" arrival="63.00" arrivalLane="624604434_2" arrivalPos="128.50" arrivalSpeed="16.52" duration="63.00" routeLength="860.48" waitingTime="3.00" waitingCount="1" stopTime="0.00" timeLoss="11.41" rerouteNo="1" devices="tripinfo_veh0 routing_veh0 emissions_veh0" vType="veh_passenger" speedFactor="1.01" vaporized="">
        <emissions CO_abs="1214.10" CO2_abs="168741.63" HC_abs="8.16" PMx_abs="20.53" NOx_abs="61.12" fuel_abs="54703.77" electricity_abs="0.00"/>
    </tripinfo>
    <tripinfo id="veh1" depart="41.00" departLane="561748193_0" departPos="5.10" departSpeed="0.00" departDelay="0.16" arrival="66.00" arrivalLane="624604434_0" arrivalPos="128.50" arrivalSpeed="17.17" duration="25.00" routeLength="349.55" waitingTime="0.00" waitingCount="0" stopTime="0.00" timeLoss="5.03" rerouteNo="0" devices="tripinfo_veh1 routing_veh1 emissions_veh1" vType="veh_passenger" speedFactor="1.08" vaporized="">
        <emissions CO_abs="758.62" CO2_abs="96421.34" HC_abs="5.07" PMx_abs="9.14" NOx_abs="33.66" fuel_abs="31258.28" electricity_abs="0.00"/>
    </tripinfo>
    <tripinfo id="truck0" depart="0.00" departLane="-678188678_0" departPos="7.20" departSpeed="8.46" departDelay="0.00" arrival="101.00" arrivalLane="683268248#0_0" arrivalPos="433.31" arrivalSpeed="16.49" duration="101.00" routeLength="1083.37" waitingTime="0.00" waitingCount="0" stopTime="0.00" timeLoss="16.34" rerouteNo="1" devices="tripinfo_truck0 routing_truck0 emissions_truck0" vType="truck_truck" speedFactor="1.02" vaporized="">
        <emissions CO_abs="137.35" CO2_abs="572856.10" HC_abs="12.08" PMx_abs="142.37" NOx_abs="255.26" fuel_abs="184108.33" electricity_abs="0.00"/>
    </tripinfo>
    <tripinfo id="truck1" depart="62.00" departLane="870991319#0_0" departPos="7.20" departSpeed="15.26" departDelay="0.74" arrival="128.00" arrivalLane="683268248#0_0" arrivalPos="433.31" arrivalSpeed="14.88" duration="66.00" routeLength="713.97" waitingTime="7.00" waitingCount="1" stopTime="0.00" timeLoss="18.52" rerouteNo="1" devices="tripinfo_truck1 routing_truck1 emissions_truck1" vType="truck_truck" speedFactor="0.92" vaporized="">
        <emissions CO_abs="88.85" CO2_abs="358331.83" HC_abs="7.80" PMx_abs="97.65" NOx_abs="162.48" fuel_abs="115164.80" electricity_abs="0.00"/>
    </tripinfo>
    <tripinfo id="veh2" depart="82.00" departLane="158466192#0_1" departPos="5.10" departSpeed="0.00" departDelay="0.33" arrival="169.00" arrivalLane="683268248#0_0" arrivalPos="433.31" arrivalSpeed="13.72" duration="87.00" routeLength="982.27" waitingTime="2.00" waitingCount="1" stopTime="0.00" timeLoss="18.41" rerouteNo="1" devices="tripinfo_veh2 routing_veh2 emissions_veh2" vType="veh_passenger" speedFactor="0.89" vaporized="">
        <emissions CO_abs="1418.06" CO2_abs="234459.76" HC_abs="9.45" PMx_abs="21.76" NOx_abs="79.98" fuel_abs="76008.46" electricity_abs="0.00"/>
    </tripinfo>
    <tripinfo id="motorcycle1" depart="123.00" departLane="651079990_0" departPos="2.30" departSpeed="10.42" departDelay="0.49" arrival="188.00" arrivalLane="683268248#0_0" arrivalPos="433.31" arrivalSpeed="14.07" duration="65.00" routeLength="608.63" waitingTime="9.00" waitingCount="1" stopTime="0.00" timeLoss="19.39" rerouteNo="1" devices="tripinfo_motorcycle1 routing_motorcycle1 emissions_motorcycle1" vType="motorcycle_motorcycle" speedFactor="0.94" vaporized="">
        <emissions CO_abs="2976.46" CO2_abs="100499.80" HC_abs="1226.56" PMx_abs="24.39" NOx_abs="136.21" fuel_abs="32587.60" electricity_abs="0.00"/>
    </tripinfo>
    <tripinfo id="bus1" depart="123.00" departLane="580815653#0_0" departPos="12.10" departSpeed="16.67" departDelay="0.49" arrival="199.00" arrivalLane="624604434_1" arrivalPos="128.50" arrivalSpeed="16.34" duration="76.00" routeLength="853.48" waitingTime="12.00" waitingCount="1" stopTime="0.00" timeLoss="24.52" rerouteNo="1" devices="tripinfo_bus1 routing_bus1 emissions_bus1" vType="bus_bus" speedFactor="1.00" vaporized="">
        <emissions CO_abs="190.67" CO2_abs="986243.16" HC_abs="17.98" PMx_abs="130.77" NOx_abs="432.62" fuel_abs="316944.47" electricity_abs="0.00"/>
    </tripinfo>
    <tripinfo id="veh4" depart="164.00" departLane="870991319#0_0" departPos="5.10" departSpeed="14.28" departDelay="0.65" arrival="205.00" arrivalLane="366952449#0_0" arrivalPos="165.43" arrivalSpeed="13.02" duration="41.00" routeLength="439.61" waitingTime="1.00" waitingCount="1" stopTime="0.00" timeLoss="9.68" rerouteNo="1" devices="tripinfo_veh4 routing_veh4 emissions_veh4" vType="veh_passenger" speedFactor="0.86" vaporized="">
        <emissions CO_abs="491.79" CO2_abs="90640.34" HC_abs="3.29" PMx_abs="8.67" NOx_abs="31.51" fuel_abs="29384.43" electricity_abs="0.00"/>
    </tripinfo>
    <tripinfo id="veh3" depart="123.00" departLane="-678188678_0" departPos="5.10" departSpeed="7.81" departDelay="0.49" arrival="221.00" arrivalLane="183689805#0_0" arrivalPos="250.25" arrivalSpeed="14.85" duration="98.00" routeLength="899.57" waitingTime="3.00" waitingCount="1" stopTime="0.00" timeLoss="15.85" rerouteNo="1" devices="tripinfo_veh3 routing_veh3 emissions_veh3" vType="veh_passenger" speedFactor="0.94" vaporized="">
        <emissions CO_abs="1029.36" CO2_abs="213908.53" HC_abs="6.87" PMx_abs="20.02" NOx_abs="74.55" fuel_abs="69346.39" electricity_abs="0.00"/>
    </tripinfo>
    <tripinfo id="truck2" depart="123.00" departLane="580815653#0_1" departPos="7.20" departSpeed="17.06" departDelay="0.49" arrival="238.00" arrivalLane="427550891#0_0" arrivalPos="352.59" arrivalSpeed="8.49" duration="115.00" routeLength="1091.07" waitingTime="13.00" waitingCount="1" stopTime="0.00" timeLoss="28.30" rerouteNo="1" devices="tripinfo_truck2 routing_truck2 emissions_truck2" vType="truck_truck" speedFactor="1.02" vaporized="">
        <emissions CO_abs="141.19" CO2_abs="520190.41" HC_abs="12.33" PMx_abs="164.87" NOx_abs="244.97" fuel_abs="167183.59" electricity_abs="0.00"/>
    </tripinfo>
    <tripinfo id="truck3" depart="184.00" departLane="870991319#0_0" departPos="7.20" departSpeed="17.70" departDelay="0.23" arrival="256.00" arrivalLane="683268248#0_0" arrivalPos="433.31" arrivalSpeed="17.62" duration="72.00" routeLength="713.97" waitingTime="18.00" waitingCount="1" stopTime="0.00" timeLoss="31.01" rerouteNo="1" devices="tripinfo_truck3 routing_truck3 emissions_truck3" vType="truck_truck" speedFactor="1.06" vaporized="">
        <emissions CO_abs="98.97" CO2_abs="412771.23" HC_abs="9.08" PMx_abs="117.12" NOx_abs="175.45" fuel_abs="132662.09" electricity_abs="0.00"/>
    </tripinfo>
    <tripinfo id="veh5" depart="205.00" departLane="366949696_0" departPos="5.10" departSpeed="18.18" departDelay="0.81" arrival="257.00" arrivalLane="427550891#0_0" arrivalPos="352.59" arrivalSpeed="8.20" duration="52.00" routeLength="484.59" waitingTime="0.00" waitingCount="0" stopTime="0.00" timeLoss="4.43" rerouteNo="0" devices="tripinfo_veh5 routing_veh5 emissions_veh5" vType="veh_passenger" speedFactor="1.09" vaporized="">
        <emissions CO_abs="278.38" CO2_abs="79544.31" HC_abs="1.86" PMx_abs="8.20" NOx_abs="27.77" fuel_abs="25787.38" electricity_abs="0.00"/>
    </tripinfo>
    <tripinfo id="veh6" depart="246.00" departLane="651079990_0" departPos="5.10" departSpeed="11.40" departDelay="0.98" arrival="291.00" arrivalLane="683268248#0_0" arrivalPos="433.31" arrivalSpeed="16.26" duration="45.00" routeLength="605.83" waitingTime="0.00" waitingCount="0" stopTime="0.00" timeLoss="3.62" rerouteNo="1" devices="tripinfo_veh6 routing_veh6 emissions_veh6" vType="veh_passenger" speedFactor="1.03" vaporized="">
        <emissions CO_abs="833.40" CO2_abs="114155.65" HC_abs="5.60" PMx_abs="14.30" NOx_abs="41.52" fuel_abs="37007.81" electricity_abs="0.00"/>
    </tripinfo>
    <tripinfo id="bus2" depart="246.00" departLane="870991319#0_0" departPos="12.10" departSpeed="16.67" departDelay="0.98" arrival="295.00" arrivalLane="683268248#0_0" arrivalPos="433.31" arrivalSpeed="16.62" duration="49.00" routeLength="709.07" waitingTime="0.00" waitingCount="0" stopTime="0.00" timeLoss="5.56" rerouteNo="1" devices="tripinfo_bus2 routing_bus2 emissions_bus2" vType="bus_bus" speedFactor="1.00" vaporized="">
        <emissions CO_abs="132.62" CO2_abs="802892.61" HC_abs="13.78" PMx_abs="94.65" NOx_abs="320.19" fuel_abs="258021.28" electricity_abs="0.00"/>
    </tripinfo>
    <tripinfo id="motorcycle2" depart="246.00" departLane="580815653#0_0" departPos="2.30" departSpeed="17.43" departDelay="0.98" arrival="301.00" arrivalLane="624604434_1" arrivalPos="128.50" arrivalSpeed="16.06" duration="55.00" routeLength="863.28" waitingTime="0.00" waitingCount="0" stopTime="0.00" timeLoss="4.71" rerouteNo="1" devices="tripinfo_motorcycle2 routing_motorcycle2 emissions_motorcycle2" vType="motorcycle_motorcycle" speedFactor="1.05" vaporized="">
        <emissions CO_abs="5583.26" CO2_abs="93591.07" HC_abs="1064.01" PMx_abs="19.91" NOx_abs="180.00" fuel_abs="30347.00" electricity_abs="0.00"/>
    </tripinfo>
    <tripinfo id="veh7" depart="286.00" departLane="580815653#0_0" departPos="5.10" departSpeed="20.45" departDelay="0.14" arrival="323.00" arrivalLane="183689805#0_0" arrivalPos="250.25" arrivalSpeed="20.31" duration="37.00" routeLength="703.70" waitingTime="0.00" waitingCount="0" stopTime="0.00" timeLoss="2.02" rerouteNo="0" devices="tripinfo_veh7 routing_veh7 emissions_veh7" vType="veh_passenger" speedFactor="1.23" vaporized="">
        <emissions CO_abs="1331.76" CO2_abs="120539.50" HC_abs="8.98" PMx_abs="16.88" NOx_abs="46.74" fuel_abs="39077.19" electricity_abs="0.00"/>
    </tripinfo>
    <tripinfo id="truck4" depart="246.00" departLane="-678188678_0" departPos="7.20" departSpeed="8.29" departDelay="0.98" arrival="339.00" arrivalLane="683268248#0_0" arrivalPos="433.31" arrivalSpeed="16.27" duration="93.00" routeLength="1083.37" waitingTime="0.00" waitingCount="0" stopTime="0.00" timeLoss="6.30" rerouteNo="1" devices="tripinfo_truck4 routing_truck4 emissions_truck4" vType="truck_truck" speedFactor="1.00" vaporized="">
        <emissions CO_abs="117.10" CO2_abs="482455.20" HC_abs="10.93" PMx_abs="144.79" NOx_abs="254.28" fuel_abs="155059.96" electricity_abs="0.00"/>
    </tripinfo>
    <tripinfo id="veh7.1" depart="287.00" departLane="580815653#0_0" departPos="5.10" departSpeed="16.47" departDelay="1.14" arrival="358.00" arrivalLane="183689805#0_0" arrivalPos="250.25" arrivalSpeed="16.45" duration="71.00" routeLength="703.70" waitingTime="20.00" waitingCount="1" stopTime="0.00" timeLoss="27.45" rerouteNo="0" devices="tripinfo_veh7.1 routing_veh7.1 emissions_veh7.1" vType="veh_passenger" speedFactor="0.99" vaporized="">
        <emissions CO_abs="1050.22" CO2_abs="167045.27" HC_abs="7.02" PMx_abs="14.70" NOx_abs="61.32" fuel_abs="54153.91" electricity_abs="0.00"/>
    </tripinfo>
    <tripinfo id="veh7.2" depart="288.00" departLane="580815653#0_0" departPos="5.10" departSpeed="14.19" departDelay="2.14" arrival="360.00" arrivalLane="183689805#0_0" arrivalPos="250.25" arrivalSpeed="18.06" duration="72.00" routeLength="703.70" waitingTime="20.00" waitingCount="1" stopTime="0.00" timeLoss="32.47" rerouteNo="0" devices="tripinfo_veh7.2 routing_veh7.2 emissions_veh7.2" vType="veh_passenger" speedFactor="1.10" vaporized="">
        <emissions CO_abs="1414.22" CO2_abs="193453.54" HC_abs="9.41" PMx_abs="15.19" NOx_abs="71.25" fuel_abs="62714.97" electricity_abs="0.00"/>
    </tripinfo>
    <tripinfo id="veh7.3" depart="289.00" departLane="580815653#0_0" departPos="5.10" departSpeed="10.70" departDelay="3.14" arrival="361.00" arrivalLane="183689805#0_0" arrivalPos="250.25" arrivalSpeed="18.55" duration="72.00" routeLength="703.70" waitingTime="19.00" waitingCount="1" stopTime="0.00" timeLoss="33.30" rerouteNo="0" devices="tripinfo_veh7.3 routing_veh7.3 emissions_veh7.3" vType="veh_passenger" speedFactor="1.11" vaporized="">
        <emissions CO_abs="1645.50" CO2_abs="213461.37" HC_abs="10.94" PMx_abs="16.26" NOx_abs="78.52" fuel_abs="69201.13" electricity_abs="0.00"/>
    </tripinfo>
    <tripinfo id="veh7.4" depart="290.00" departLane="580815653#0_0" departPos="5.10" departSpeed="7.23" departDelay="4.14" arrival="363.00" arrivalLane="183689805#0_0" arrivalPos="250.25" arrivalSpeed="16.93" duration="73.00" routeLength="703.70" waitingTime="18.00" waitingCount="1" stopTime="0.00" timeLoss="33.27" rerouteNo="0" devices="tripinfo_veh7.4 routing_veh7.4 emissions_veh7.4" vType="veh_passenger" speedFactor="1.09" vaporized="">
        <emissions CO_abs="1534.27" CO2_abs="212021.34" HC_abs="10.21" PMx_abs="16.24" NOx_abs="77.32" fuel_abs="68734.38" electricity_abs="0.00"/>
    </tripinfo>
    <tripinfo id="veh7.5" depart="292.00" departLane="580815653#0_0" departPos="5.10" departSpeed="8.56" departDelay="6.14" arrival="368.00" arrivalLane="183689805#0_0" arrivalPos="250.25" arrivalSpeed="15.13" duration="76.00" routeLength="703.70" waitingTime="17.00" waitingCount="1" stopTime="0.00" timeLoss="29.65" rerouteNo="0" devices="tripinfo_veh7.5 routing_veh7.5 emissions_veh7.5" vType="veh_passenger" speedFactor="0.94" vaporized="">
        <emissions CO_abs="1110.43" CO2_abs="189925.35" HC_abs="7.42" PMx_abs="16.60" NOx_abs="68.14" fuel_abs="61571.38" electricity_abs="0.00"/>
    </tripinfo>
    <tripinfo id="veh7.6" depart="293.00" departLane="580815653#0_0" departPos="5.10" departSpeed="4.27" departDelay="7.14" arrival="369.00" arrivalLane="183689805#0_0" arrivalPos="250.25" arrivalSpeed="17.12" duration="76.00" routeLength="703.70" waitingTime="17.00" waitingCount="1" stopTime="0.00" timeLoss="37.86" rerouteNo="0" devices="tripinfo_veh7.6 routing_veh7.6 emissions_veh7.6" vType="veh_passenger" speedFactor="1.12" vaporized="">
        <emissions CO_abs="1461.70" CO2_abs="217379.89" HC_abs="9.72" PMx_abs="16.25" NOx_abs="77.96" fuel_abs="70471.54" electricity_abs="0.00"/>
    </tripinfo>
    <tripinfo id="veh7.7" depart="295.00" departLane="580815653#0_0" departPos="5.10" departSpeed="1.87" departDelay="9.14" arrival="371.00" arrivalLane="183689805#0_0" arrivalPos="250.25" arrivalSpeed="16.02" duration="76.00" routeLength="703.70" waitingTime="17.00" waitingCount="1" stopTime="0.00" timeLoss="32.31" rerouteNo="0" devices="tripinfo_veh7.7 routing_veh7.7 emissions_veh7.7" vType="veh_passenger" speedFactor="0.99" vaporized="">
        <emissions CO_abs="1319.09" CO2_abs="209313.98" HC_abs="8.78" PMx_abs="15.89" NOx_abs="74.05" fuel_abs="67856.66" electricity_abs="0.00"/>
    </tripinfo>
    <tripinfo id="veh7.8" depart="298.00" departLane="580815653#0_0" departPos="5.10" departSpeed="5.13" departDelay="12.14" arrival="374.00" arrivalLane="183689805#0_0" arrivalPos="250.25" arrivalSpeed="14.39" duration="76.00" routeLength="703.70" waitingTime="16.00" waitingCount="1" stopTime="0.00" timeLoss="28.99" rerouteNo="0" devices="tripinfo_veh7.8 routing_veh7.8 emissions_veh7.8" vType="veh_passenger" speedFactor="0.92" vaporized="">
        <emissions CO_abs="1081.03" CO2_abs="186592.44" HC_abs="7.20" PMx_abs="14.97" NOx_abs="66.00" fuel_abs="60490.80" electricity_abs="0.00"/>
    </tripinfo>
    <tripinfo id="veh7.9" depart="300.00" departLane="580815653#0_0" departPos="5.10" departSpeed="5.26" departDelay="14.14" arrival="375.00" arrivalLane="183689805#0_0" arrivalPos="250.25" arrivalSpeed="16.12" duration="75.00" routeLength="703.70" waitingTime="15.00" waitingCount="1" stopTime="0.00" timeLoss="33.70" rerouteNo="0" devices="tripinfo_veh7.9 routing_veh7.9 emissions_veh7.9" vType="veh_passenger" speedFactor="1.04" vaporized="">
        <emissions CO_abs="1364.73" CO2_abs="206597.92" HC_abs="9.07" PMx_abs="15.28" NOx_abs="73.31" fuel_abs="66976.12" electricity_abs="0.00"/>
    </tripinfo>
    <tripinfo id="veh7.10" depart="302.00" departLane="580815653#0_0" departPos="5.10" departSpeed="5.32" departDelay="16.14" arrival="377.00" arrivalLane="183689805#0_0" arrivalPos="250.25" arrivalSpeed="16.05" duration="75.00" routeLength="703.70" waitingTime="13.00" waitingCount="1" stopTime="0.00" timeLoss="32.43" rerouteNo="0" devices="tripinfo_veh7.10 routing_veh7.10 emissions_veh7.10" vType="veh_passenger" speedFactor="1.02" vaporized="">
        <emissions CO_abs="1442.55" CO2_abs="210638.92" HC_abs="9.59" PMx_abs="15.80" NOx_abs="75.08" fuel_abs="68286.12" electricity_abs="0.00"/>
    </tripinfo>
    <tripinfo id="veh7.11" depart="304.00" departLane="580815653#0_0" departPos="5.10" departSpeed="4.93" departDelay="18.14" arrival="378.00" arrivalLane="183689805#0_0" arrivalPos="250.25" arrivalSpeed="18.09" duration="74.00" routeLength="703.70" waitingTime="12.00" waitingCount="1" stopTime="0.00" timeLoss="35.48" rerouteNo="0" devices="tripinfo_veh7.11 routing_veh7.11 emissions_veh7.11" vType="veh_passenger" speedFactor="1.11" vaporized="">
        <emissions CO_abs="1591.90" CO2_abs="222856.36" HC_abs="10.58" PMx_abs="16.51" NOx_abs="80.07" fuel_abs="72246.81" electricity_abs="0.00"/>
    </tripinfo>
    <tripinfo id="veh7.12" depart="306.00" departLane="580815653#0_0" departPos="5.10" departSpeed="2.29" departDelay="20.14" arrival="382.00" arrivalLane="183689805#0_0" arrivalPos="250.25" arrivalSpeed="14.29" duration="76.00" routeLength="703.70" waitingTime="11.00" waitingCount="1" stopTime="0.00" timeLoss="27.99" rerouteNo="0" devices="tripinfo_veh7.12 routing_veh7.12 emissions_veh7.12" vType="veh_passenger" speedFactor="0.90" vaporized="">
        <emissions CO_abs="1005.55" CO2_abs="190937.67" HC_abs="6.72" PMx_abs="16.36" NOx_abs="66.73" fuel_abs="61899.43" electricity_abs="0.00"/>
    </tripinfo>
    <tripinfo id="veh7.13" depart="309.00" departLane="580815653#0_0" departPos="5.10" departSpeed="4.18" departDelay="23.14" arrival="383.00" arrivalLane="183689805#0_0" arrivalPos="250.25" arrivalSpeed="15.42" duration="74.00" routeLength="703.70" waitingTime="11.00" waitingCount="1" stopTime="0.00" timeLoss="30.15" rerouteNo="0" devices="tripinfo_veh7.13 routing_veh7.13 emissions_veh7.13" vType="veh_passenger" speedFactor="0.97" vaporized="">
        <emissions CO_abs="1235.52" CO2_abs="203939.03" HC_abs="8.22" PMx_abs="16.33" NOx_abs="71.63" fuel_abs="66114.23" electricity_abs="0.00"/>
    </tripinfo>
    <tripinfo id="veh7.14" depart="311.00" departLane="580815653#0_0" departPos="5.10" departSpeed="2.37" departDelay="25.14" arrival="385.00" arrivalLane="183689805#0_0" arrivalPos="250.25" arrivalSpeed="16.45" duration="74.00" routeLength="703.70" waitingTime="11.00" waitingCount="1" stopTime="0.00" timeLoss="30.37" rerouteNo="0" devices="tripinfo_veh7.14 routing_veh7.14 emissions_veh7.14" vType="veh_passenger" speedFactor="0.99" vaporized="">
        <emissions CO_abs="1322.65" CO2_abs="211261.52" HC_abs="8.81" PMx_abs="16.98" NOx_abs="74.49" fuel_abs="68488.07" electricity_abs="0.00"/>
    </tripinfo>
    <tripinfo id="veh7.15" depart="314.00" departLane="580815653#0_0" departPos="5.10" departSpeed="5.58" departDelay="28.14" arrival="386.00" arrivalLane="183689805#0_0" arrivalPos="250.25" arrivalSpeed="18.66" duration="72.00" routeLength="703.70" waitingTime="11.00" waitingCount="1" stopTime="0.00" timeLoss="35.77" rerouteNo="0" devices="tripinfo_veh7.15 routing_veh7.15 emissions_veh7.15" vType="veh_passenger" speedFactor="1.18" vaporized="">
        <emissions CO_abs="1598.78" CO2_abs="222135.97" HC_abs="10.62" PMx_abs="16.64" NOx_abs="79.43" fuel_abs="72013.24" electricity_abs="0.00"/>
    </tripinfo>
    <tripinfo id="veh7.16" depart="316.00" departLane="580815653#0_0" departPos="5.10" departSpeed="4.92" departDelay="30.14" arrival="388.00" arrivalLane="183689805#0_0" arrivalPos="250.25" arrivalSpeed="15.81" duration="72.00" routeLength="703.70" waitingTime="10.00" waitingCount="1" stopTime="0.00" timeLoss="28.91" rerouteNo="0" devices="tripinfo_veh7.16 routing_veh7.16 emissions_veh7.16" vType="veh_passenger" speedFactor="1.00" vaporized="">
        <emissions CO_abs="1318.94" CO2_abs="200648.38" HC_abs="8.78" PMx_abs="15.74" NOx_abs="70.69" fuel_abs="65047.36" electricity_abs="0.00"/>
    </tripinfo>
    <tripinfo id="veh7.17" depart="318.00" departLane="580815653#0_0" departPos="5.10" departSpeed="4.80" departDelay="32.14" arrival="390.00" arrivalLane="183689805#0_0" arrivalPos="250.25" arrivalSpeed="17.02" duration="72.00" routeLength="703.70" waitingTime="11.00" waitingCount="1" stopTime="0.00" timeLoss="30.80" rerouteNo="0" devices="tripinfo_veh7.17 routing_veh7.17 emissions_veh7.17" vType="veh_passenger" speedFactor="1.05" vaporized="">
        <emissions CO_abs="1491.11" CO2_abs="213493.07" HC_abs="9.91" PMx_abs="16.31" NOx_abs="75.81" fuel_abs="69211.35" electricity_abs="0.00"/>
    </tripinfo>
    <tripinfo id="veh7.18" depart="320.00" departLane="580815653#0_0" departPos="5.10" departSpeed="3.69" departDelay="34.14" arrival="391.00" arrivalLane="183689805#0_0" arrivalPos="250.25" arrivalSpeed="17.77" duration="71.00" routeLength="703.70" waitingTime="10.00" waitingCount="1" stopTime="0.00" timeLoss="33.13" rerouteNo="0" devices="tripinfo_veh7.18 routing_veh7.18 emissions_veh7.18" vType="veh_passenger" speedFactor="1.13" vaporized="">
        <emissions CO_abs="1671.32" CO2_abs="226355.56" HC_abs="11.10" PMx_abs="16.52" NOx_abs="80.83" fuel_abs="73381.09" electricity_abs="0.00"/>
    </tripinfo>
    <tripinfo id="veh7.19" depart="323.00" departLane="580815653#0_0" departPos="5.10" departSpeed="6.44" departDelay="37.14" arrival="395.00" arrivalLane="183689805#0_0" arrivalPos="250.25" arrivalSpeed="15.04" duration="72.00" routeLength="703.70" waitingTime="8.00" waitingCount="1" stopTime="0.00" timeLoss="26.16" rerouteNo="0" devices="tripinfo_veh7.19 routing_veh7.19 emissions_veh7.19" vType="veh_passenger" speedFactor="0.96" vaporized="">
        <emissions CO_abs="1172.92" CO2_abs="188634.08" HC_abs="7.81" PMx_abs="15.67" NOx_abs="66.32" fuel_abs="61152.57" electricity_abs="0.00"/>
    </tripinfo>
    <tripinfo id="veh7.20" depart="325.00" departLane="580815653#0_0" departPos="5.10" departSpeed="6.90" departDelay="39.14" arrival="402.00" arrivalLane="183689805#0_0" arrivalPos="250.25" arrivalSpeed="12.02" duration="77.00" routeLength="703.70" waitingTime="4.00" waitingCount="1" stopTime="0.00" timeLoss="18.47" rerouteNo="0" devices="tripinfo_veh7.20 routing_veh7.20 emissions_veh7.20" vType="veh_passenger" speedFactor="0.74" vaporized="">
        <emissions CO_abs="771.23" CO2_abs="167977.72" HC_abs="5.14" PMx_abs="14.56" NOx_abs="58.01" fuel_abs="54456.25" electricity_abs="0.00"/>
    </tripinfo>
    <tripinfo id="veh7.21" depart="327.00" departLane="580815653#0_0" departPos="5.10" departSpeed="7.89" departDelay="41.14" arrival="403.00" arrivalLane="183689805#0_0" arrivalPos="250.25" arrivalSpeed="13.29" duration="76.00" routeLength="703.70" waitingTime="5.00" waitingCount="1" stopTime="0.00" timeLoss="26.53" rerouteNo="0" devices="tripinfo_veh7.21 routing_veh7.21 emissions_veh7.21" vType="veh_passenger" speedFactor="0.87" vaporized="">
        <emissions CO_abs="939.04" CO2_abs="181033.62" HC_abs="6.24" PMx_abs="15.04" NOx_abs="62.19" fuel_abs="58688.67" electricity_abs="0.00"/>
    </tripinfo>
    <tripinfo id="veh7.22" depart="328.00" departLane="580815653#0_0" departPos="5.10" departSpeed="3.00" departDelay="42.14" arrival="405.00" arrivalLane="183689805#0_0" arrivalPos="250.25" arrivalSpeed="13.89" duration="77.00" routeLength="703.70" waitingTime="5.00" waitingCount="1" stopTime="0.00" timeLoss="27.77" rerouteNo="0" devices="tripinfo_veh7.22 routing_veh7.22 emissions_veh7.22" vType="veh_passenger" speedFactor="0.87" vaporized="">
        <emissions CO_abs="1268.71" CO2_abs="210973.32" HC_abs="8.40" PMx_abs="14.64" NOx_abs="71.71" fuel_abs="68394.43" electricity_abs="0.00"/>
    </tripinfo>
    <tripinfo id="veh7.23" depart="331.00" departLane="580815653#0_0" departPos="5.10" departSpeed="6.10" departDelay="45.14" arrival="407.00" arrivalLane="183689805#0_0" arrivalPos="250.25" arrivalSpeed="17.49" duration="76.00" routeLength="703.70" waitingTime="4.00" waitingCount="1" stopTime="0.00" timeLoss="36.23" rerouteNo="0" devices="tripinfo_veh7.23 routing_veh7.23 emissions_veh7.23" vType="veh_passenger" speedFactor="1.10" vaporized="">
        <emissions CO_abs="1380.44" CO2_abs="217692.71" HC_abs="9.15" PMx_abs="15.97" NOx_abs="75.18" fuel_abs="70572.81" electricity_abs="0.00"/>
    </tripinfo>
    <tripinfo id="veh7.24" depart="333.00" departLane="580815653#0_0" departPos="5.10" departSpeed="6.66" departDelay="47.14" arrival="408.00" arrivalLane="183689805#0_0" arrivalPos="250.25" arrivalSpeed="14.67" duration="75.00" routeLength="703.70" waitingTime="3.00" waitingCount="1" stopTime="0.00" timeLoss="28.97" rerouteNo="0" devices="tripinfo_veh7.24 routing_veh7.24 emissions_veh7.24" vType="veh_passenger" speedFactor="0.93" vaporized="">
        <emissions CO_abs="1201.17" CO2_abs="203255.32" HC_abs="7.96" PMx_abs="15.91" NOx_abs="70.08" fuel_abs="65892.51" electricity_abs="0.00"/>
    </tripinfo>
    <tripinfo id="veh7.25" depart="335.00" departLane="580815653#0_0" departPos="5.10" departSpeed="6.50" departDelay="49.14" arrival="410.00" arrivalLane="183689805#0_0" arrivalPos="250.25" arrivalSpeed="15.49" duration="75.00" routeLength="703.70" waitingTime="3.00" waitingCount="1" stopTime="0.00" timeLoss="29.67" rerouteNo="0" devices="tripinfo_veh7.25 routing_veh7.25 emissions_veh7.25" vType="veh_passenger" speedFactor="0.95" vaporized="">
        <emissions CO_abs="1176.13" CO2_abs="201483.20" HC_abs="7.81" PMx_abs="15.65" NOx_abs="69.38" fuel_abs="65318.02" electricity_abs="0.00"/>
    </tripinfo>
    <tripinfo id="truck5" depart="307.00" departLane="580815653#0_1" departPos="7.20" departSpeed="15.68" departDelay="0.72" arrival="414.00" arrivalLane="427550891#0_0" arrivalPos="352.59" arrivalSpeed="7.69" duration="107.00" routeLength="1091.07" waitingTime="0.00" waitingCount="0" stopTime="0.00" timeLoss="13.22" rerouteNo="1" devices="tripinfo_truck5 routing_truck5 emissions_truck5" vType="truck_truck" speedFactor="0.94" vaporized="">
        <emissions CO_abs="130.80" CO2_abs="482110.87" HC_abs="11.33" PMx_abs="148.87" NOx_abs="242.56" fuel_abs="154945.51" electricity_abs="0.00"/>
    </tripinfo>
    <tripinfo id="veh9" depart="368.00" departLane="561748189_0" departPos="5.10" departSpeed="0.00" departDelay="0.47" arrival="416.00" arrivalLane="683268248#0_0" arrivalPos="433.31" arrivalSpeed="16.25" duration="48.00" routeLength="728.28" waitingTime="0.00" waitingCount="0" stopTime="0.00" timeLoss="5.16" rerouteNo="0" devices="tripinfo_veh9 routing_veh9 emissions_veh9" vType="veh_passenger" speedFactor="1.03" vaporized="">
        <emissions CO_abs="1228.05" CO2_abs="151636.79" HC_abs="8.23" PMx_abs="17.01" NOx_abs="54.31" fuel_abs="49158.42" electricity_abs="0.00"/>
    </tripinfo>
    <tripinfo id="truck5.1" depart="308.00" departLane="580815653#0_1" departPos="7.20" departSpeed="12.73" departDelay="1.72" arrival="416.00" arrivalLane="427550891#0_0" arrivalPos="352.59" arrivalSpeed="8.34" duration="108.00" routeLength="1091.07" waitingTime="0.00" waitingCount="0" stopTime="0.00" timeLoss="21.22" rerouteNo="1" devices="tripinfo_truck5.1 routing_truck5.1 emissions_truck5.1" vType="truck_truck" speedFactor="1.01" vaporized="">