<?xml version="1.0" encoding="UTF-8"?>

<!-- generated on 2025-10-02 19:10:01 by Eclipse SUMO GUI Version 1.24.0
<sumoConfiguration xmlns:xsi="http://www.w3.org/2001/XMLSchema-instance" xsi:noNamespaceSchemaLocation="http://sumo.dlr.de/xsd/sumoConfiguration.xsd">

    <input>
        <net-file value="osm.net.xml.gz"/>
        <route-files value="osm.bus.trips.xml,osm.motorcycle.trips.xml,osm.passenger.trips.xml,osm.truck.trips.xml"/>
        <additional-files value="osm.poly.xml.gz,output.add.xml"/>
    </input>

    <output>
        <emission-output value="St%20Dominic%20Area_emissions.xml"/>
        <summary-output value="St%20Dominic%20Area_summary.xml"/>
        <tripinfo-output value="tripinfos.xml"/>
        <edgedata-output value="St%20Dominic%20Area_edgedata.xml"/>
        <statistic-output value="stats.xml"/>
    </output>

    <processing>
        <ignore-route-errors value="true"/>
        <tls.actuated.jam-threshold value="30"/>
    </processing>

    <routing>
        <device.rerouting.adaptation-steps value="18"/>
        <device.rerouting.adaptation-interval value="10"/>
    </routing>

    <report>
        <verbose value="true"/>
        <duration-log.statistics value="true"/>
        <no-step-log value="true"/>
    </report>

    <gui_only>
        <gui-settings-file value="osm.view.xml"/>
    </gui_only>

</sumoConfiguration>
-->

<meandata xmlns:xsi="http://www.w3.org/2001/XMLSchema-instance" xsi:noNamespaceSchemaLocation="http://sumo.dlr.de/xsd/meandata_file.xsd">
    <interval begin="0.00" end="1901.00" id="DEFAULT_EDGEDATA">
        <edge id="-1392084250" sampledSeconds="37254.09" traveltime="98.03" overlapTraveltime="99.70" density="89.25" laneDensity="29.75" occupancy="17.50" waitingTime="22129.00" timeLoss="32209.81" speed="2.26" speedRelative="0.14" departed="398" arrived="0" entered="0" left="371" laneChangedFrom="35" laneChangedTo="35"/>
        <edge id="-564298126#9" sampledSeconds="19003.59" traveltime="44.53" overlapTraveltime="46.55" density="42.33" laneDensity="21.16" occupancy="15.81" waitingTime="1097.00" timeLoss="12827.46" speed="5.24" speedRelative="0.31" departed="0" arrived="166" entered="410" left="244" laneChangedFrom="63" laneChangedTo="63"/>
        <edge id="-712245744#1" sampledSeconds="1956.19" traveltime="3.89" overlapTraveltime="4.86" density="34.55" laneDensity="11.52" occupancy="6.62" waitingTime="75.00" timeLoss="1066.03" speed="7.62" speedRelative="0.46" departed="40" arrived="0" entered="370" left="410" laneChangedFrom="72" laneChangedTo="72"/>
        <edge id="1054315844#0" sampledSeconds="3336.76" traveltime="32.51" overlapTraveltime="32.95" density="8.92" laneDensity="4.46" occupancy="1.44" waitingTime="1034.00" timeLoss="2118.23" speed="6.07" speedRelative="0.36" departed="103" arrived="0" entered="0" left="103" laneChangedFrom="0" laneChangedTo="0"/>
        <edge id="1054315845#0" sampledSeconds="1592.46" traveltime="15.53" overlapTraveltime="15.81" density="3.57" laneDensity="1.79" occupancy="0.78" waitingTime="0.00" timeLoss="149.25" speed="15.10" speedRelative="0.91" departed="0" arrived="101" entered="101" left="0" laneChangedFrom="0" laneChangedTo="0"/>
        <edge id="1326404883" sampledSeconds="196.96" traveltime="9.13" overlapTraveltime="9.43" density="0.75" laneDensity="0.25" occupancy="0.11" waitingTime="0.00" timeLoss="14.18" speed="15.24" speedRelative="0.91" departed="0" arrived="21" entered="21" left="0" laneChangedFrom="0" laneChangedTo="0"/>
        <edge id="1392084244#0" sampledSeconds="37301.24" traveltime="85.66" overlapTraveltime="87.84" density="83.40" laneDensity="41.70" occupancy="28.15" waitingTime="17610.00" timeLoss="31118.15" speed="2.76" speedRelative="0.17" departed="191" arrived="0" entered="244" left="416" laneChangedFrom="201" laneChangedTo="201"/>
        <edge id="555020953#0" sampledSeconds="1158.31" traveltime="10.71" overlapTraveltime="11.00" density="21.39" laneDensity="7.13" occupancy="1.98" waitingTime="628.00" timeLoss="948.86" speed="2.86" speedRelative="0.17" departed="1" arrived="0" entered="103" left="104" laneChangedFrom="1" laneChangedTo="1"/>
        <edge id="564298145" sampledSeconds="2561.57" traveltime="43.31" overlapTraveltime="44.06" density="9.71" laneDensity="3.24" occupancy="1.39" waitingTime="1384.00" timeLoss="2063.64" speed="3.25" speedRelative="0.19" departed="60" arrived="0" entered="0" left="60" laneChangedFrom="0" laneChangedTo="0"/>
        <edge id="653727191#0" sampledSeconds="6147.72" traveltime="14.30" overlapTraveltime="14.71" density="14.91" laneDensity="4.97" occupancy="3.17" waitingTime="0.00" timeLoss="539.14" speed="15.19" speedRelative="0.91" departed="0" arrived="419" entered="428" left="0" laneChangedFrom="18" laneChangedTo="18"/>
        <edge id="712245744#0" sampledSeconds="8458.04" traveltime="18.73" overlapTraveltime="20.24" density="150.21" laneDensity="50.07" occupancy="29.83" waitingTime="5958.00" timeLoss="7526.25" speed="1.79" speedRelative="0.11" departed="0" arrived="20" entered="415" left="391" laneChangedFrom="42" laneChangedTo="42"/>
    </interval>
</meandata>
