<?xml version="1.0" encoding="UTF-8"?>

<!-- generated on 2025-09-17 21:32:58 by Eclipse SUMO GUI Version 1.24.0
<sumoConfiguration xmlns:xsi="http://www.w3.org/2001/XMLSchema-instance" xsi:noNamespaceSchemaLocation="http://sumo.dlr.de/xsd/sumoConfiguration.xsd">

    <input>
        <net-file value="osm.net.xml.gz"/>
        <route-files value="osm.bus.trips.xml,osm.motorcycle.trips.xml,osm.passenger.trips.xml,osm.truck.trips.xml"/>
        <additional-files value="osm.poly.xml.gz,output.add.xml"/>
    </input>

    <output>
        <tripinfo-output value="tripinfos.xml"/>
        <statistic-output value="stats.xml"/>
    </output>

    <processing>
        <ignore-route-errors value="true"/>
        <tls.actuated.jam-threshold value="30"/>
    </processing>

    <routing>
        <device.rerouting.adaptation-steps value="18"/>
        <device.rerouting.adaptation-interval value="10"/>
    </routing>

    <report>
        <verbose value="true"/>
        <duration-log.statistics value="true"/>
        <no-step-log value="true"/>
    </report>

    <gui_only>
        <gui-settings-file value="osm.view.xml"/>
    </gui_only>

</sumoConfiguration>
-->

<tripinfos xmlns:xsi="http://www.w3.org/2001/XMLSchema-instance" xsi:noNamespaceSchemaLocation="http://sumo.dlr.de/xsd/tripinfo_file.xsd">
    <tripinfo id="veh0" depart="0.00" departLane="1054315844#0_0" departPos="5.10" departSpeed="16.84" departDelay="0.00" arrival="27.00" arrivalLane="1326404883_0" arrivalPos="139.02" arrivalSpeed="16.41" duration="27.00" routeLength="422.65" waitingTime="0.00" waitingCount="0" stopTime="0.00" timeLoss="1.09" rerouteNo="1" devices="tripinfo_veh0 routing_veh0" vType="veh_passenger" speedFactor="1.01" vaporized=""/>
    <tripinfo id="motorcycle0" depart="0.00" departLane="-1392084250_2" departPos="2.30" departSpeed="17.67" departDelay="0.00" arrival="52.00" arrivalLane="653727191#0_2" arrivalPos="26.82" arrivalSpeed="6.66" duration="52.00" routeLength="248.79" waitingTime="27.00" waitingCount="2" stopTime="0.00" timeLoss="37.41" rerouteNo="1" devices="tripinfo_motorcycle0 routing_motorcycle0" vType="motorcycle_motorcycle" speedFactor="1.06" vaporized=""/>
    <tripinfo id="truck0" depart="1.00" departLane="1054315844#0_0" departPos="7.20" departSpeed="12.85" departDelay="1.00" arrival="62.00" arrivalLane="-564298126#9_0" arrivalPos="236.18" arrivalSpeed="16.51" duration="61.00" routeLength="661.13" waitingTime="2.00" waitingCount="1" stopTime="0.00" timeLoss="19.72" rerouteNo="1" devices="tripinfo_truck0 routing_truck0" vType="truck_truck" speedFactor="1.02" vaporized=""/>
    <tripinfo id="bus0" depart="0.00" departLane="1392084244#0_1" departPos="12.10" departSpeed="16.67" departDelay="0.00" arrival="96.00" arrivalLane="-564298126#9_0" arrivalPos="236.18" arrivalSpeed="16.60" duration="96.00" routeLength="705.27" waitingTime="26.00" waitingCount="2" stopTime="0.00" timeLoss="52.12" rerouteNo="1" devices="tripinfo_bus0 routing_bus0" vType="bus_bus" speedFactor="1.00" vaporized=""/>
    <tripinfo id="veh1" depart="72.00" departLane="-1392084250_0" departPos="5.10" departSpeed="18.05" departDelay="0.74" arrival="123.00" arrivalLane="-564298126#9_0" arrivalPos="236.18" arrivalSpeed="17.60" duration="51.00" routeLength="544.93" waitingTime="13.00" waitingCount="1" stopTime="0.00" timeLoss="20.53" rerouteNo="1" devices="tripinfo_veh1 routing_veh1" vType="veh_passenger" speedFactor="1.08" vaporized=""/>
    <tripinfo id="veh2" depart="143.00" departLane="-1392084250_0" departPos="5.10" departSpeed="16.85" departDelay="0.48" arrival="189.00" arrivalLane="-564298126#9_0" arrivalPos="236.18" arrivalSpeed="15.55" duration="46.00" routeLength="544.93" waitingTime="7.00" waitingCount="1" stopTime="0.00" timeLoss="13.66" rerouteNo="1" devices="tripinfo_veh2 routing_veh2" vType="veh_passenger" speedFactor="1.01" vaporized=""/>
    <tripinfo id="veh2.2" depart="144.00" departLane="-1392084250_0" departPos="5.10" departSpeed="14.31" departDelay="1.48" arrival="189.00" arrivalLane="-564298126#9_1" arrivalPos="236.18" arrivalSpeed="17.10" duration="45.00" routeLength="544.93" waitingTime="5.00" waitingCount="1" stopTime="0.00" timeLoss="13.35" rerouteNo="1" devices="tripinfo_veh2.2 routing_veh2.2" vType="veh_passenger" speedFactor="1.05" vaporized=""/>
    <tripinfo id="veh2.4" depart="145.00" departLane="-1392084250_0" departPos="5.10" departSpeed="11.18" departDelay="2.48" arrival="192.00" arrivalLane="-564298126#9_0" arrivalPos="236.18" arrivalSpeed="15.51" duration="47.00" routeLength="544.93" waitingTime="4.00" waitingCount="1" stopTime="0.00" timeLoss="13.62" rerouteNo="1" devices="tripinfo_veh2.4 routing_veh2.4" vType="veh_passenger" speedFactor="1.01" vaporized=""/>
    <tripinfo id="veh2.6" depart="146.00" departLane="-1392084250_0" departPos="5.10" departSpeed="7.40" departDelay="3.48" arrival="193.00" arrivalLane="-564298126#9_0" arrivalPos="236.18" arrivalSpeed="18.19" duration="47.00" routeLength="544.93" waitingTime="4.00" waitingCount="1" stopTime="0.00" timeLoss="16.70" rerouteNo="1" devices="tripinfo_veh2.6 routing_veh2.6" vType="veh_passenger" speedFactor="1.09" vaporized=""/>
    <tripinfo id="veh2.8" depart="148.00" departLane="-1392084250_0" departPos="5.10" departSpeed="8.47" departDelay="5.48" arrival="195.00" arrivalLane="-564298126#9_0" arrivalPos="236.18" arrivalSpeed="17.09" duration="47.00" routeLength="544.93" waitingTime="4.00" waitingCount="1" stopTime="0.00" timeLoss="15.95" rerouteNo="1" devices="tripinfo_veh2.8 routing_veh2.8" vType="veh_passenger" speedFactor="1.08" vaporized=""/>
    <tripinfo id="veh2.3" depart="144.00" departLane="-1392084250_1" departPos="5.10" departSpeed="7.42" departDelay="1.48" arrival="196.00" arrivalLane="-564298126#9_1" arrivalPos="236.18" arrivalSpeed="18.30" duration="52.00" routeLength="544.93" waitingTime="2.00" waitingCount="1" stopTime="0.00" timeLoss="22.53" rerouteNo="1" devices="tripinfo_veh2.3 routing_veh2.3" vType="veh_passenger" speedFactor="1.12" vaporized=""/>
    <tripinfo id="veh2.5" depart="146.00" departLane="-1392084250_1" departPos="5.10" departSpeed="8.38" departDelay="3.48" arrival="199.00" arrivalLane="-564298126#9_1" arrivalPos="236.18" arrivalSpeed="15.94" duration="53.00" routeLength="544.93" waitingTime="1.00" waitingCount="1" stopTime="0.00" timeLoss="19.66" rerouteNo="1" devices="tripinfo_veh2.5 routing_veh2.5" vType="veh_passenger" speedFactor="1.01" vaporized=""/>
    <tripinfo id="veh2.1" depart="143.00" departLane="-1392084250_1" departPos="5.10" departSpeed="11.51" departDelay="0.48" arrival="200.00" arrivalLane="-564298126#9_0" arrivalPos="236.18" arrivalSpeed="10.44" duration="57.00" routeLength="544.93" waitingTime="3.00" waitingCount="1" stopTime="0.00" timeLoss="9.35" rerouteNo="1" devices="tripinfo_veh2.1 routing_veh2.1" vType="veh_passenger" speedFactor="0.69" vaporized=""/>
    <tripinfo id="veh2.7" depart="147.00" departLane="-1392084250_1" departPos="5.10" departSpeed="4.47" departDelay="4.48" arrival="200.00" arrivalLane="-564298126#9_1" arrivalPos="236.18" arrivalSpeed="17.17" duration="53.00" routeLength="544.93" waitingTime="0.00" waitingCount="0" stopTime="0.00" timeLoss="22.17" rerouteNo="1" devices="tripinfo_veh2.7 routing_veh2.7" vType="veh_passenger" speedFactor="1.07" vaporized=""/>
    <tripinfo id="veh2.10" depart="150.00" departLane="-1392084250_0" departPos="5.10" departSpeed="9.51" departDelay="7.48" arrival="202.00" arrivalLane="-564298126#9_0" arrivalPos="236.18" arrivalSpeed="14.19" duration="52.00" routeLength="544.93" waitingTime="2.00" waitingCount="1" stopTime="0.00" timeLoss="15.55" rerouteNo="1" devices="tripinfo_veh2.10 routing_veh2.10" vType="veh_passenger" speedFactor="0.91" vaporized=""/>
    <tripinfo id="veh2.9" depart="149.00" departLane="-1392084250_1" departPos="5.10" departSpeed="2.68" departDelay="6.48" arrival="203.00" arrivalLane="-564298126#9_1" arrivalPos="236.18" arrivalSpeed="14.78" duration="54.00" routeLength="544.93" waitingTime="0.00" waitingCount="0" stopTime="0.00" timeLoss="17.68" rerouteNo="1" devices="tripinfo_veh2.9 routing_veh2.9" vType="veh_passenger" speedFactor="0.91" vaporized=""/>
    <tripinfo id="veh2.11" depart="151.00" departLane="-1392084250_0" departPos="5.10" departSpeed="5.51" departDelay="8.48" arrival="203.00" arrivalLane="-564298126#9_0" arrivalPos="236.18" arrivalSpeed="14.66" duration="52.00" routeLength="544.93" waitingTime="2.00" waitingCount="1" stopTime="0.00" timeLoss="16.31" rerouteNo="1" devices="tripinfo_veh2.11 routing_veh2.11" vType="veh_passenger" speedFactor="0.92" vaporized=""/>
    <tripinfo id="veh2.12" depart="152.00" departLane="-1392084250_1" departPos="5.10" departSpeed="4.25" departDelay="9.48" arrival="205.00" arrivalLane="-564298126#9_1" arrivalPos="236.18" arrivalSpeed="16.12" duration="53.00" routeLength="544.93" waitingTime="0.00" waitingCount="0" stopTime="0.00" timeLoss="20.33" rerouteNo="1" devices="tripinfo_veh2.12 routing_veh2.12" vType="veh_passenger" speedFactor="1.03" vaporized=""/>
    <tripinfo id="veh2.13" depart="153.00" departLane="-1392084250_0" departPos="5.10" departSpeed="5.20" departDelay="10.48" arrival="205.00" arrivalLane="-564298126#9_0" arrivalPos="236.18" arrivalSpeed="15.42" duration="52.00" routeLength="544.93" waitingTime="1.00" waitingCount="1" stopTime="0.00" timeLoss="20.66" rerouteNo="1" devices="tripinfo_veh2.13 routing_veh2.13" vType="veh_passenger" speedFactor="1.05" vaporized=""/>
    <tripinfo id="truck1" depart="107.00" departLane="-1392084250_1" departPos="7.20" departSpeed="15.26" departDelay="0.11" arrival="206.00" arrivalLane="653727192_0" arrivalPos="189.90" arrivalSpeed="14.75" duration="99.00" routeLength="1092.34" waitingTime="7.00" waitingCount="1" stopTime="0.00" timeLoss="25.83" rerouteNo="1" devices="tripinfo_truck1 routing_truck1" vType="truck_truck" speedFactor="0.92" vaporized=""/>
    <tripinfo id="veh2.14" depart="154.00" departLane="-1392084250_1" departPos="5.10" departSpeed="1.17" departDelay="11.48" arrival="206.00" arrivalLane="-564298126#9_1" arrivalPos="236.18" arrivalSpeed="17.05" duration="52.00" routeLength="544.93" waitingTime="0.00" waitingCount="0" stopTime="0.00" timeLoss="19.88" rerouteNo="1" devices="tripinfo_veh2.14 routing_veh2.14" vType="veh_passenger" speedFactor="1.03" vaporized=""/>
    <tripinfo id="veh2.15" depart="155.00" departLane="-1392084250_0" departPos="5.10" departSpeed="4.39" departDelay="12.48" arrival="207.00" arrivalLane="-564298126#9_0" arrivalPos="236.18" arrivalSpeed="17.67" duration="52.00" routeLength="544.93" waitingTime="0.00" waitingCount="0" stopTime="0.00" timeLoss="21.86" rerouteNo="1" devices="tripinfo_veh2.15 routing_veh2.15" vType="veh_passenger" speedFactor="1.11" vaporized=""/>
    <tripinfo id="veh2.16" depart="157.00" departLane="-1392084250_0" departPos="5.10" departSpeed="2.12" departDelay="14.48" arrival="209.00" arrivalLane="-564298126#9_0" arrivalPos="236.18" arrivalSpeed="14.07" duration="52.00" routeLength="544.93" waitingTime="0.00" waitingCount="0" stopTime="0.00" timeLoss="13.36" rerouteNo="1" devices="tripinfo_veh2.16 routing_veh2.16" vType="veh_passenger" speedFactor="0.86" vaporized=""/>
    <tripinfo id="veh2.17" depart="157.00" departLane="-1392084250_1" departPos="5.10" departSpeed="0.48" departDelay="14.48" arrival="209.00" arrivalLane="-564298126#9_1" arrivalPos="236.18" arrivalSpeed="15.10" duration="52.00" routeLength="544.93" waitingTime="0.00" waitingCount="0" stopTime="0.00" timeLoss="18.24" rerouteNo="1" devices="tripinfo_veh2.17 routing_veh2.17" vType="veh_passenger" speedFactor="0.98" vaporized=""/>
    <tripinfo id="veh2.18" depart="160.00" departLane="-1392084250_0" departPos="5.10" departSpeed="1.97" departDelay="17.48" arrival="210.00" arrivalLane="-564298126#9_0" arrivalPos="236.18" arrivalSpeed="15.74" duration="50.00" routeLength="544.93" waitingTime="0.00" waitingCount="0" stopTime="0.00" timeLoss="16.08" rerouteNo="1" devices="tripinfo_veh2.18 routing_veh2.18" vType="veh_passenger" speedFactor="0.97" vaporized=""/>
    <tripinfo id="veh2.19" depart="161.00" departLane="-1392084250_1" departPos="5.10" departSpeed="5.00" departDelay="18.48" arrival="211.00" arrivalLane="-564298126#9_1" arrivalPos="236.18" arrivalSpeed="16.71" duration="50.00" routeLength="544.93" waitingTime="0.00" waitingCount="0" stopTime="0.00" timeLoss="17.27" rerouteNo="1" devices="tripinfo_veh2.19 routing_veh2.19" vType="veh_passenger" speedFactor="1.02" vaporized=""/>
    <tripinfo id="veh2.20" depart="163.00" departLane="-1392084250_1" departPos="5.10" departSpeed="2.13" departDelay="20.48" arrival="212.00" arrivalLane="-564298126#9_1" arrivalPos="236.18" arrivalSpeed="15.34" duration="49.00" routeLength="544.93" waitingTime="0.00" waitingCount="0" stopTime="0.00" timeLoss="16.12" rerouteNo="1" devices="tripinfo_veh2.20 routing_veh2.20" vType="veh_passenger" speedFactor="0.99" vaporized=""/>
    <tripinfo id="veh2.21" depart="163.00" departLane="-1392084250_0" departPos="5.10" departSpeed="1.30" departDelay="20.48" arrival="212.00" arrivalLane="-564298126#9_0" arrivalPos="236.18" arrivalSpeed="15.82" duration="49.00" routeLength="544.93" waitingTime="0.00" waitingCount="0" stopTime="0.00" timeLoss="16.01" rerouteNo="1" devices="tripinfo_veh2.21 routing_veh2.21" vType="veh_passenger" speedFactor="1.01" vaporized=""/>
    <tripinfo id="veh2.23" depart="166.00" departLane="-1392084250_0" departPos="5.10" departSpeed="1.85" departDelay="23.48" arrival="213.00" arrivalLane="-564298126#9_0" arrivalPos="236.18" arrivalSpeed="15.50" duration="47.00" routeLength="544.93" waitingTime="0.00" waitingCount="0" stopTime="0.00" timeLoss="13.83" rerouteNo="1" devices="tripinfo_veh2.23 routing_veh2.23" vType="veh_passenger" speedFactor="0.99" vaporized=""/>
    <tripinfo id="veh2.22" depart="166.00" departLane="-1392084250_1" departPos="5.10" departSpeed="4.64" departDelay="23.48" arrival="214.00" arrivalLane="-564298126#9_1" arrivalPos="236.18" arrivalSpeed="15.98" duration="48.00" routeLength="544.93" waitingTime="0.00" waitingCount="0" stopTime="0.00" timeLoss="15.47" rerouteNo="1" devices="tripinfo_veh2.22 routing_veh2.22" vType="veh_passenger" speedFactor="1.02" vaporized=""/>
    <tripinfo id="veh2.25" depart="169.00" departLane="-1392084250_0" departPos="5.10" departSpeed="1.50" departDelay="26.48" arrival="215.00" arrivalLane="-564298126#9_0" arrivalPos="236.18" arrivalSpeed="15.83" duration="46.00" routeLength="544.93" waitingTime="0.00" waitingCount="0" stopTime="0.00" timeLoss="13.39" rerouteNo="1" devices="tripinfo_veh2.25 routing_veh2.25" vType="veh_passenger" speedFactor="1.02" vaporized=""/>
    <tripinfo id="veh2.24" depart="168.00" departLane="-1392084250_1" departPos="5.10" departSpeed="4.87" departDelay="25.48" arrival="216.00" arrivalLane="-564298126#9_1" arrivalPos="236.18" arrivalSpeed="20.05" duration="48.00" routeLength="544.93" waitingTime="0.00" waitingCount="0" stopTime="0.00" timeLoss="19.98" rerouteNo="1" devices="tripinfo_veh2.24 routing_veh2.24" vType="veh_passenger" speedFactor="1.21" vaporized=""/>
    <tripinfo id="veh2.28" depart="172.00" departLane="-1392084250_0" departPos="5.10" departSpeed="0.78" departDelay="29.48" arrival="217.00" arrivalLane="-564298126#9_0" arrivalPos="236.18" arrivalSpeed="16.38" duration="45.00" routeLength="544.93" waitingTime="0.00" waitingCount="0" stopTime="0.00" timeLoss="12.61" rerouteNo="1" devices="tripinfo_veh2.28 routing_veh2.28" vType="veh_passenger" speedFactor="1.04" vaporized=""/>
    <tripinfo id="veh2.26" depart="170.00" departLane="-1392084250_1" departPos="5.10" departSpeed="5.22" departDelay="27.48" arrival="218.00" arrivalLane="-564298126#9_1" arrivalPos="236.18" arrivalSpeed="15.14" duration="48.00" routeLength="544.93" waitingTime="0.00" waitingCount="0" stopTime="0.00" timeLoss="13.90" rerouteNo="1" devices="tripinfo_veh2.26 routing_veh2.26" vType="veh_passenger" speedFactor="0.97" vaporized=""/>
    <tripinfo id="veh2.30" depart="175.00" departLane="-1392084250_0" departPos="5.10" departSpeed="1.21" departDelay="32.48" arrival="219.00" arrivalLane="-564298126#9_0" arrivalPos="236.18" arrivalSpeed="15.06" duration="44.00" routeLength="544.93" waitingTime="0.00" waitingCount="0" stopTime="0.00" timeLoss="8.53" rerouteNo="1" devices="tripinfo_veh2.30 routing_veh2.30" vType="veh_passenger" speedFactor="0.95" vaporized=""/>
    <tripinfo id="veh2.27" depart="172.00" departLane="-1392084250_1" departPos="5.10" departSpeed="3.07" departDelay="29.48" arrival="220.00" arrivalLane="-564298126#9_1" arrivalPos="236.18" arrivalSpeed="16.01" duration="48.00" routeLength="544.93" waitingTime="0.00" waitingCount="0" stopTime="0.00" timeLoss="14.33" rerouteNo="1" devices="tripinfo_veh2.27 routing_veh2.27" vType="veh_passenger" speedFactor="0.99" vaporized=""/>
    <tripinfo id="veh2.32" depart="178.00" departLane="-1392084250_0" departPos="5.10" departSpeed="0.27" departDelay="35.48" arrival="220.00" arrivalLane="-564298126#9_0" arrivalPos="236.18" arrivalSpeed="15.11" duration="42.00" routeLength="544.93" waitingTime="0.00" waitingCount="0" stopTime="0.00" timeLoss="6.68" rerouteNo="1" devices="tripinfo_veh2.32 routing_veh2.32" vType="veh_passenger" speedFactor="0.93" vaporized=""/>
    <tripinfo id="veh2.34" depart="181.00" departLane="-1392084250_0" departPos="5.10" departSpeed="1.36" departDelay="38.48" arrival="222.00" arrivalLane="-564298126#9_0" arrivalPos="236.18" arrivalSpeed="19.19" duration="41.00" routeLength="544.93" waitingTime="0.00" waitingCount="0" stopTime="0.00" timeLoss="12.28" rerouteNo="1" devices="tripinfo_veh2.34 routing_veh2.34" vType="veh_passenger" speedFactor="1.17" vaporized=""/>
    <tripinfo id="veh2.29" depart="175.00" departLane="-1392084250_1" departPos="5.10" departSpeed="3.51" departDelay="32.48" arrival="224.00" arrivalLane="-564298126#9_1" arrivalPos="236.18" arrivalSpeed="13.49" duration="49.00" routeLength="544.93" waitingTime="0.00" waitingCount="0" stopTime="0.00" timeLoss="10.63" rerouteNo="1" devices="tripinfo_veh2.29 routing_veh2.29" vType="veh_passenger" speedFactor="0.86" vaporized=""/>
    <tripinfo id="veh2.36" depart="184.00" departLane="-1392084250_0" departPos="5.10" departSpeed="1.22" departDelay="41.48" arrival="224.00" arrivalLane="-564298126#9_0" arrivalPos="236.18" arrivalSpeed="15.82" duration="40.00" routeLength="544.93" waitingTime="0.00" waitingCount="0" stopTime="0.00" timeLoss="6.92" rerouteNo="1" devices="tripinfo_veh2.36 routing_veh2.36" vType="veh_passenger" speedFactor="1.02" vaporized=""/>
    <tripinfo id="veh2.39" depart="187.00" departLane="-1392084250_0" departPos="5.10" departSpeed="0.30" departDelay="44.48" arrival="225.00" arrivalLane="-564298126#9_0" arrivalPos="236.18" arrivalSpeed="17.16" duration="38.00" routeLength="544.93" waitingTime="0.00" waitingCount="0" stopTime="0.00" timeLoss="6.36" rerouteNo="1" devices="tripinfo_veh2.39 routing_veh2.39" vType="veh_passenger" speedFactor="1.04" vaporized=""/>
    <tripinfo id="veh2.31" depart="177.00" departLane="-1392084250_1" departPos="5.10" departSpeed="0.59" departDelay="34.48" arrival="226.00" arrivalLane="-564298126#9_1" arrivalPos="236.18" arrivalSpeed="14.10" duration="49.00" routeLength="544.93" waitingTime="0.00" waitingCount="0" stopTime="0.00" timeLoss="9.98" rerouteNo="1" devices="tripinfo_veh2.31 routing_veh2.31" vType="veh_passenger" speedFactor="0.85" vaporized=""/>
    <tripinfo id="veh2.42" depart="191.00" departLane="-1392084250_0" departPos="5.10" departSpeed="6.44" departDelay="48.48" arrival="227.00" arrivalLane="-564298126#9_0" arrivalPos="236.18" arrivalSpeed="18.18" duration="36.00" routeLength="544.93" waitingTime="0.00" waitingCount="0" stopTime="0.00" timeLoss="7.26" rerouteNo="1" devices="tripinfo_veh2.42 routing_veh2.42" vType="veh_passenger" speedFactor="1.17" vaporized=""/>
    <tripinfo id="veh2.33" depart="181.00" departLane="-1392084250_1" departPos="5.10" departSpeed="5.77" departDelay="38.48" arrival="228.00" arrivalLane="-564298126#9_1" arrivalPos="236.18" arrivalSpeed="17.52" duration="47.00" routeLength="544.93" waitingTime="0.00" waitingCount="0" stopTime="0.00" timeLoss="16.36" rerouteNo="1" devices="tripinfo_veh2.33 routing_veh2.33" vType="veh_passenger" speedFactor="1.10" vaporized=""/>
    <tripinfo id="veh2.35" depart="183.00" departLane="-1392084250_1" departPos="5.10" departSpeed="5.57" departDelay="40.48" arrival="229.00" arrivalLane="-564298126#9_1" arrivalPos="236.18" arrivalSpeed="18.19" duration="46.00" routeLength="544.93" waitingTime="0.00" waitingCount="0" stopTime="0.00" timeLoss="16.35" rerouteNo="1" devices="tripinfo_veh2.35 routing_veh2.35" vType="veh_passenger" speedFactor="1.12" vaporized=""/>
    <tripinfo id="veh2.37" depart="185.00" departLane="-1392084250_1" departPos="5.10" departSpeed="6.08" departDelay="42.48" arrival="230.00" arrivalLane="-564298126#9_0" arrivalPos="236.18" arrivalSpeed="14.83" duration="45.00" routeLength="544.93" waitingTime="0.00" waitingCount="0" stopTime="0.00" timeLoss="8.46" rerouteNo="1" devices="tripinfo_veh2.37 routing_veh2.37" vType="veh_passenger" speedFactor="0.90" vaporized=""/>
    <tripinfo id="veh2.38" depart="187.00" departLane="-1392084250_1" departPos="5.10" departSpeed="6.81" departDelay="44.48" arrival="231.00" arrivalLane="-564298126#9_1" arrivalPos="236.18" arrivalSpeed="15.84" duration="44.00" routeLength="544.93" waitingTime="0.00" waitingCount="0" stopTime="0.00" timeLoss="10.92" rerouteNo="1" devices="tripinfo_veh2.38 routing_veh2.38" vType="veh_passenger" speedFactor="1.01" vaporized=""/>
    <tripinfo id="veh2.40" depart="189.00" departLane="-1392084250_1" departPos="5.10" departSpeed="6.93" departDelay="46.48" arrival="232.00" arrivalLane="-564298126#9_1" arrivalPos="236.18" arrivalSpeed="16.07" duration="43.00" routeLength="544.93" waitingTime="0.00" waitingCount="0" stopTime="0.00" timeLoss="9.44" rerouteNo="1" devices="tripinfo_veh2.40 routing_veh2.40" vType="veh_passenger" speedFactor="0.98" vaporized=""/>
    <tripinfo id="veh2.44" depart="193.00" departLane="-1392084250_0" departPos="5.10" departSpeed="6.53" departDelay="50.48" arrival="232.00" arrivalLane="-564298126#9_0" arrivalPos="236.18" arrivalSpeed="14.94" duration="39.00" routeLength="544.93" waitingTime="0.00" waitingCount="0" stopTime="0.00" timeLoss="4.60" rerouteNo="1" devices="tripinfo_veh2.44 routing_veh2.44" vType="veh_passenger" speedFactor="0.97" vaporized=""/>
    <tripinfo id="veh2.41" depart="191.00" departLane="-1392084250_1" departPos="5.10" departSpeed="8.55" departDelay="48.48" arrival="234.00" arrivalLane="-564298126#9_1" arrivalPos="236.18" arrivalSpeed="16.01" duration="43.00" routeLength="544.93" waitingTime="0.00" waitingCount="0" stopTime="0.00" timeLoss="9.70" rerouteNo="1" devices="tripinfo_veh2.41 routing_veh2.41" vType="veh_passenger" speedFactor="1.00" vaporized=""/>
    <tripinfo id="veh2.46" depart="195.00" departLane="-1392084250_0" departPos="5.10" departSpeed="6.87" departDelay="52.48" arrival="234.00" arrivalLane="-564298126#9_0" arrivalPos="236.18" arrivalSpeed="15.93" duration="39.00" routeLength="544.93" waitingTime="0.00" waitingCount="0" stopTime="0.00" timeLoss="6.12" rerouteNo="1" devices="tripinfo_veh2.46 routing_veh2.46" vType="veh_passenger" speedFactor="1.02" vaporized=""/>
    <tripinfo id="veh2.43" depart="192.00" departLane="-1392084250_1" departPos="5.10" departSpeed="4.61" departDelay="49.48" arrival="236.00" arrivalLane="-564298126#9_1" arrivalPos="236.18" arrivalSpeed="14.85" duration="44.00" routeLength="544.93" waitingTime="0.00" waitingCount="0" stopTime="0.00" timeLoss="9.25" rerouteNo="1" devices="tripinfo_veh2.43 routing_veh2.43" vType="veh_passenger" speedFactor="0.96" vaporized=""/>
    <tripinfo id="veh2.48" depart="197.00" departLane="-1392084250_0" departPos="5.10" departSpeed="6.52" departDelay="54.48" arrival="237.00" arrivalLane="-564298126#9_0" arrivalPos="236.18" arrivalSpeed="13.84" duration="40.00" routeLength="544.93" waitingTime="0.00" waitingCount="0" stopTime="0.00" timeLoss="3.21" rerouteNo="1" devices="tripinfo_veh2.48 routing_veh2.48" vType="veh_passenger" speedFactor="0.90" vaporized=""/>
    <tripinfo id="veh2.45" depart="194.00" departLane="-1392084250_1" departPos="5.10" departSpeed="3.22" departDelay="51.48" arrival="239.00" arrivalLane="-564298126#9_1" arrivalPos="236.18" arrivalSpeed="13.90" duration="45.00" routeLength="544.93" waitingTime="0.00" waitingCount="0" stopTime="0.00" timeLoss="7.24" rerouteNo="1" devices="tripinfo_veh2.45 routing_veh2.45" vType="veh_passenger" speedFactor="0.89" vaporized=""/>
    <tripinfo id="veh2.49" depart="199.00" departLane="-1392084250_0" departPos="5.10" departSpeed="7.45" departDelay="56.48" arrival="264.00" arrivalLane="-564298126#9_0" arrivalPos="236.18" arrivalSpeed="18.54" duration="65.00" routeLength="544.93" waitingTime="24.00" waitingCount="1" stopTime="0.00" timeLoss="35.44" rerouteNo="1" devices="tripinfo_veh2.49 routing_veh2.49" vType="veh_passenger" speedFactor="1.13" vaporized=""/>
    <tripinfo id="veh2.51" depart="201.00" departLane="-1392084250_0" departPos="5.10" departSpeed="7.79" departDelay="58.48" arrival="268.00" arrivalLane="-564298126#9_0" arrivalPos="236.18" arrivalSpeed="14.87" duration="67.00" routeLength="544.93" waitingTime="23.00" waitingCount="1" stopTime="0.00" timeLoss="32.65" rerouteNo="1" devices="tripinfo_veh2.51 routing_veh2.51" vType="veh_passenger" speedFactor="0.96" vaporized=""/>
    <tripinfo id="veh2.47" depart="197.00" departLane="-1392084250_1" departPos="5.10" departSpeed="6.33" departDelay="54.48" arrival="269.00" arrivalLane="-564298126#9_0" arrivalPos="236.18" arrivalSpeed="14.00" duration="72.00" routeLength="544.93" waitingTime="23.00" waitingCount="1" stopTime="0.00" timeLoss="32.26" rerouteNo="1" devices="tripinfo_veh2.47 routing_veh2.47" vType="veh_passenger" speedFactor="0.84" vaporized=""/>
    <tripinfo id="veh2.50" depart="199.00" departLane="-1392084250_1" departPos="5.10" departSpeed="6.04" departDelay="56.48" arrival="270.00" arrivalLane="-564298126#9_1" arrivalPos="236.18" arrivalSpeed="15.96" duration="71.00" routeLength="544.93" waitingTime="22.00" waitingCount="1" stopTime="0.00" timeLoss="38.02" rerouteNo="1" devices="tripinfo_veh2.50 routing_veh2.50" vType="veh_passenger" speedFactor="1.00" vaporized=""/>
    <tripinfo id="veh2.53" depart="203.00" departLane="-1392084250_0" departPos="5.10" departSpeed="9.86" departDelay="60.48" arrival="271.00" arrivalLane="-564298126#9_0" arrivalPos="236.18" arrivalSpeed="14.52" duration="68.00" routeLength="544.93" waitingTime="22.00" waitingCount="1" stopTime="0.00" timeLoss="32.45" rerouteNo="1" devices="tripinfo_veh2.53 routing_veh2.53" vType="veh_passenger" speedFactor="0.93" vaporized=""/>
    <tripinfo id="veh2.56" depart="205.00" departLane="-1392084250_1" departPos="5.10" departSpeed="7.97" departDelay="62.48" arrival="272.00" arrivalLane="-564298126#9_1" arrivalPos="236.18" arrivalSpeed="15.55" duration="67.00" routeLength="544.93" waitingTime="17.00" waitingCount="1" stopTime="0.00" timeLoss="33.40" rerouteNo="1" devices="tripinfo_veh2.56 routing_veh2.56" vType="veh_passenger" speedFactor="0.99" vaporized=""/>
    <tripinfo id="veh2.52" depart="201.00" departLane="-1392084250_1" departPos="5.10" departSpeed="6.64" departDelay="58.48" arrival="273.00" arrivalLane="-564298126#9_1" arrivalPos="236.18" arrivalSpeed="16.42" duration="72.00" routeLength="544.93" waitingTime="20.00" waitingCount="1" stopTime="0.00" timeLoss="38.68" rerouteNo="1" devices="tripinfo_veh2.52 routing_veh2.52" vType="veh_passenger" speedFactor="0.99" vaporized=""/>
    <tripinfo id="veh2.55" depart="204.00" departLane="-1392084250_0" departPos="5.10" departSpeed="6.40" departDelay="61.48" arrival="273.00" arrivalLane="-564298126#9_0" arrivalPos="236.18" arrivalSpeed="15.57" duration="69.00" routeLength="544.93" waitingTime="21.00" waitingCount="1" stopTime="0.00" timeLoss="33.83" rerouteNo="1" devices="tripinfo_veh2.55 routing_veh2.55" vType="veh_passenger" speedFactor="0.95" vaporized=""/>
    <tripinfo id="veh2.57" depart="206.00" departLane="-1392084250_0" departPos="5.10" departSpeed="6.86" departDelay="63.48" arrival="274.00" arrivalLane="-564298126#9_0" arrivalPos="236.18" arrivalSpeed="15.62" duration="68.00" routeLength="544.93" waitingTime="19.00" waitingCount="1" stopTime="0.00" timeLoss="35.10" rerouteNo="1" devices="tripinfo_veh2.57 routing_veh2.57" vType="veh_passenger" speedFactor="1.00" vaporized=""/>
    <tripinfo id="veh2.60" depart="208.00" departLane="-1392084250_1" departPos="5.10" departSpeed="4.15" departDelay="65.48" arrival="275.00" arrivalLane="-564298126#9_1" arrivalPos="236.18" arrivalSpeed="15.31" duration="67.00" routeLength="544.93" waitingTime="13.00" waitingCount="1" stopTime="0.00" timeLoss="31.48" rerouteNo="1" devices="tripinfo_veh2.60 routing_veh2.60" vType="veh_passenger" speedFactor="0.93" vaporized=""/>
    <tripinfo id="veh2.59" depart="208.00" departLane="-1392084250_0" departPos="5.10" departSpeed="7.15" departDelay="65.48" arrival="276.00" arrivalLane="-564298126#9_0" arrivalPos="236.18" arrivalSpeed="15.81" duration="68.00" routeLength="544.93" waitingTime="20.00" waitingCount="1" stopTime="0.00" timeLoss="34.34" rerouteNo="1" devices="tripinfo_veh2.59 routing_veh2.59" vType="veh_passenger" speedFactor="0.98" vaporized=""/>
    <tripinfo id="veh2.64" depart="213.00" departLane="-1392084250_1" departPos="5.10" departSpeed="5.02" departDelay="70.48" arrival="277.00" arrivalLane="-564298126#9_1" arrivalPos="236.18" arrivalSpeed="17.57" duration="64.00" routeLength="544.93" waitingTime="10.00" waitingCount="1" stopTime="0.00" timeLoss="37.01" rerouteNo="1" devices="tripinfo_veh2.64 routing_veh2.64" vType="veh_passenger" speedFactor="1.24" vaporized=""/>