<?xml version="1.0" encoding="UTF-8"?>

<!-- generated on 2025-08-30 20:05:02 by Eclipse SUMO GUI Version 1.24.0
<sumoConfiguration xmlns:xsi="http://www.w3.org/2001/XMLSchema-instance" xsi:noNamespaceSchemaLocation="http://sumo.dlr.de/xsd/sumoConfiguration.xsd">

    <input>
        <net-file value="C:\Users\kgaqu\OneDrive\Documents\4th Year\Capstone 2\Networks\2025-08-30-20-04-51\osm.net.xml.gz"/>
        <route-files value="C:\Users\kgaqu\OneDrive\Documents\4th Year\Capstone 2\Networks\2025-08-30-20-04-51\osm.bus.trips.xml,C:\Users\kgaqu\OneDrive\Documents\4th Year\Capstone 2\Networks\2025-08-30-20-04-51\osm.motorcycle.trips.xml,C:\Users\kgaqu\OneDrive\Documents\4th Year\Capstone 2\Networks\2025-08-30-20-04-51\osm.passenger.trips.xml,C:\Users\kgaqu\OneDrive\Documents\4th Year\Capstone 2\Networks\2025-08-30-20-04-51\osm.truck.trips.xml"/>
        <additional-files value="C:\Users\kgaqu\OneDrive\Documents\4th Year\Capstone 2\Networks\2025-08-30-20-04-51\output.add.xml"/>
    </input>

    <output>
        <tripinfo-output value="C:\Users\kgaqu\OneDrive\Documents\4th Year\Capstone 2\Networks\2025-08-30-20-04-51\tripinfos.xml"/>
        <statistic-output value="C:\Users\kgaqu\OneDrive\Documents\4th Year\Capstone 2\Networks\2025-08-30-20-04-51\stats.xml"/>
    </output>

    <processing>
        <ignore-route-errors value="true"/>
        <tls.actuated.jam-threshold value="30"/>
    </processing>

    <routing>
        <device.rerouting.adaptation-steps value="18"/>
        <device.rerouting.adaptation-interval value="10"/>
    </routing>

    <report>
        <verbose value="true"/>
        <duration-log.statistics value="true"/>
        <no-step-log value="true"/>
    </report>

    <gui_only>
        <gui-settings-file value="C:\Users\kgaqu\OneDrive\Documents\4th Year\Capstone 2\Networks\2025-08-30-20-04-51\osm.view.xml"/>
    </gui_only>

</sumoConfiguration>
-->

<tripinfos xmlns:xsi="http://www.w3.org/2001/XMLSchema-instance" xsi:noNamespaceSchemaLocation="http://sumo.dlr.de/xsd/tripinfo_file.xsd">
    <tripinfo id="motorcycle0" depart="0.00" departLane="-1392084250_2" departPos="2.30" departSpeed="0.00" departDelay="0.00" arrival="74.00" arrivalLane="35260359#0_0" arrivalPos="69.17" arrivalSpeed="13.54" duration="74.00" routeLength="911.21" waitingTime="0.00" waitingCount="0" stopTime="0.00" timeLoss="13.54" rerouteNo="1" devices="tripinfo_motorcycle0 routing_motorcycle0" vType="motorcycle_motorcycle" speedFactor="1.06" vaporized=""/>
    <tripinfo id="veh2" depart="34.00" departLane="-35260369#0_0" departPos="5.10" departSpeed="0.00" departDelay="0.97" arrival="94.00" arrivalLane="-1392084244#1_1" arrivalPos="36.93" arrivalSpeed="18.14" duration="60.00" routeLength="723.25" waitingTime="1.00" waitingCount="1" stopTime="0.00" timeLoss="16.06" rerouteNo="1" devices="tripinfo_veh2 routing_veh2" vType="veh_passenger" speedFactor="1.09" vaporized=""/>
    <tripinfo id="truck0" depart="0.00" departLane="-35260369#0_0" departPos="7.20" departSpeed="0.00" departDelay="0.00" arrival="118.00" arrivalLane="1054315845#0_0" arrivalPos="668.36" arrivalSpeed="16.63" duration="118.00" routeLength="1173.81" waitingTime="19.00" waitingCount="1" stopTime="0.00" timeLoss="44.12" rerouteNo="1" devices="tripinfo_truck0 routing_truck0" vType="truck_truck" speedFactor="1.02" vaporized=""/>
    <tripinfo id="veh0" depart="0.00" departLane="-853618778#6_0" departPos="5.10" departSpeed="14.03" departDelay="0.00" arrival="135.00" arrivalLane="249396544#3_0" arrivalPos="36.94" arrivalSpeed="13.01" duration="135.00" routeLength="1394.51" waitingTime="14.00" waitingCount="1" stopTime="0.00" timeLoss="36.84" rerouteNo="1" devices="tripinfo_veh0 routing_veh0" vType="veh_passenger" speedFactor="1.01" vaporized=""/>
    <tripinfo id="motorcycle2" depart="100.00" departLane="338477202#1_0" departPos="2.30" departSpeed="0.00" departDelay="0.92" arrival="142.00" arrivalLane="35260374_0" arrivalPos="84.15" arrivalSpeed="13.51" duration="42.00" routeLength="353.59" waitingTime="3.00" waitingCount="1" stopTime="0.00" timeLoss="15.02" rerouteNo="1" devices="tripinfo_motorcycle2 routing_motorcycle2" vType="motorcycle_motorcycle" speedFactor="1.05" vaporized=""/>
    <tripinfo id="veh3" depart="50.00" departLane="-338477202#2_0" departPos="5.10" departSpeed="14.26" departDelay="0.46" arrival="142.00" arrivalLane="1392084244#0_1" arrivalPos="37.09" arrivalSpeed="13.30" duration="92.00" routeLength="856.39" waitingTime="9.00" waitingCount="1" stopTime="0.00" timeLoss="33.68" rerouteNo="1" devices="tripinfo_veh3 routing_veh3" vType="veh_passenger" speedFactor="1.03" vaporized=""/>
    <tripinfo id="veh1" depart="17.00" departLane="564298145#0_2" departPos="5.10" departSpeed="18.05" departDelay="0.49" arrival="144.00" arrivalLane="-338477202#0_0" arrivalPos="681.63" arrivalSpeed="14.55" duration="127.00" routeLength="1557.31" waitingTime="7.00" waitingCount="1" stopTime="0.00" timeLoss="26.67" rerouteNo="1" devices="tripinfo_veh1 routing_veh1" vType="veh_passenger" speedFactor="1.08" vaporized=""/>
    <tripinfo id="bus0" depart="0.00" departLane="-35260360#1_0" departPos="12.10" departSpeed="0.00" departDelay="0.00" arrival="159.00" arrivalLane="1054315845#0_0" arrivalPos="668.36" arrivalSpeed="16.62" duration="159.00" routeLength="1520.68" waitingTime="17.00" waitingCount="1" stopTime="0.00" timeLoss="58.02" rerouteNo="1" devices="tripinfo_bus0 routing_bus0" vType="bus_bus" speedFactor="1.00" vaporized=""/>
    <tripinfo id="motorcycle1" depart="50.00" departLane="-29547816_0" departPos="2.30" departSpeed="0.00" departDelay="0.46" arrival="169.00" arrivalLane="-902535590_0" arrivalPos="60.12" arrivalSpeed="13.03" duration="119.00" routeLength="1055.91" waitingTime="17.00" waitingCount="2" stopTime="0.00" timeLoss="40.54" rerouteNo="1" devices="tripinfo_motorcycle1 routing_motorcycle1" vType="motorcycle_motorcycle" speedFactor="0.94" vaporized=""/>
    <tripinfo id="truck3" depart="75.00" departLane="-249396544#1_0" departPos="7.20" departSpeed="0.00" departDelay="0.69" arrival="173.00" arrivalLane="853618778#5_0" arrivalPos="32.90" arrivalSpeed="12.34" duration="98.00" routeLength="970.58" waitingTime="0.00" waitingCount="0" stopTime="0.00" timeLoss="22.89" rerouteNo="1" devices="tripinfo_truck3 routing_truck3" vType="truck_truck" speedFactor="0.91" vaporized=""/>
    <tripinfo id="veh8" depart="133.00" departLane="-27258652#1_0" departPos="5.10" departSpeed="19.52" departDelay="0.89" arrival="186.00" arrivalLane="-249396544#2_0" arrivalPos="76.38" arrivalSpeed="11.46" duration="53.00" routeLength="584.97" waitingTime="0.00" waitingCount="0" stopTime="0.00" timeLoss="9.18" rerouteNo="1" devices="tripinfo_veh8 routing_veh8" vType="veh_passenger" speedFactor="0.88" vaporized=""/>
    <tripinfo id="veh6" depart="100.00" departLane="-27258652#1_0" departPos="5.10" departSpeed="22.02" departDelay="0.92" arrival="195.00" arrivalLane="564298119#0_2" arrivalPos="159.78" arrivalSpeed="15.92" duration="95.00" routeLength="953.70" waitingTime="12.00" waitingCount="2" stopTime="0.00" timeLoss="33.16" rerouteNo="1" devices="tripinfo_veh6 routing_veh6" vType="veh_passenger" speedFactor="0.99" vaporized=""/>
    <tripinfo id="truck2" depart="50.00" departLane="-27258652#1_0" departPos="7.20" departSpeed="20.99" departDelay="0.46" arrival="205.00" arrivalLane="-853618778#0_0" arrivalPos="50.11" arrivalSpeed="10.00" duration="155.00" routeLength="1366.52" waitingTime="17.00" waitingCount="2" stopTime="0.00" timeLoss="56.55" rerouteNo="1" devices="tripinfo_truck2 routing_truck2" vType="truck_truck" speedFactor="0.94" vaporized=""/>
    <tripinfo id="truck1" depart="25.00" departLane="-27258652#1_0" departPos="7.20" departSpeed="20.34" departDelay="0.23" arrival="206.00" arrivalLane="-1217689481#0_0" arrivalPos="63.77" arrivalSpeed="12.27" duration="181.00" routeLength="1732.46" waitingTime="8.00" waitingCount="1" stopTime="0.00" timeLoss="48.89" rerouteNo="1" devices="tripinfo_truck1 routing_truck1" vType="truck_truck" speedFactor="0.92" vaporized=""/>
    <tripinfo id="bus1" depart="50.00" departLane="-35260360#1_0" departPos="12.10" departSpeed="0.00" departDelay="0.46" arrival="207.00" arrivalLane="27258652#1_0" arrivalPos="230.98" arrivalSpeed="22.16" duration="157.00" routeLength="1575.53" waitingTime="4.00" waitingCount="1" stopTime="0.00" timeLoss="48.24" rerouteNo="1" devices="tripinfo_bus1 routing_bus1" vType="bus_bus" speedFactor="1.00" vaporized=""/>
    <tripinfo id="veh4" depart="67.00" departLane="938252836_0" departPos="5.10" departSpeed="0.00" departDelay="0.95" arrival="207.00" arrivalLane="35260361#1_0" arrivalPos="3.52" arrivalSpeed="9.60" duration="140.00" routeLength="1413.18" waitingTime="15.00" waitingCount="1" stopTime="0.00" timeLoss="41.87" rerouteNo="1" devices="tripinfo_veh4 routing_veh4" vType="veh_passenger" speedFactor="1.05" vaporized=""/>
    <tripinfo id="bus2" depart="100.00" departLane="360438706#0_0" departPos="12.10" departSpeed="13.89" departDelay="0.92" arrival="214.00" arrivalLane="338477202#2_0" arrivalPos="32.51" arrivalSpeed="10.65" duration="114.00" routeLength="1006.33" waitingTime="6.00" waitingCount="2" stopTime="0.00" timeLoss="44.20" rerouteNo="1" devices="tripinfo_bus2 routing_bus2" vType="bus_bus" speedFactor="1.00" vaporized=""/>
    <tripinfo id="veh5" depart="83.00" departLane="35260360#2_0" departPos="5.10" departSpeed="0.00" departDelay="0.43" arrival="214.00" arrivalLane="-360438708_0" arrivalPos="61.72" arrivalSpeed="14.95" duration="131.00" routeLength="1096.02" waitingTime="28.00" waitingCount="2" stopTime="0.00" timeLoss="61.55" rerouteNo="1" devices="tripinfo_veh5 routing_veh5" vType="veh_passenger" speedFactor="1.12" vaporized=""/>
    <tripinfo id="veh9" depart="149.00" departLane="-1392084244#1_1" departPos="5.10" departSpeed="0.00" departDelay="0.38" arrival="244.00" arrivalLane="-853618778#4_0" arrivalPos="29.73" arrivalSpeed="10.28" duration="95.00" routeLength="1008.23" waitingTime="0.00" waitingCount="0" stopTime="0.00" timeLoss="20.28" rerouteNo="1" devices="tripinfo_veh9 routing_veh9" vType="veh_passenger" speedFactor="0.94" vaporized=""/>
    <tripinfo id="bus3" depart="149.00" departLane="1392084253_0" departPos="12.10" departSpeed="16.67" departDelay="0.38" arrival="252.00" arrivalLane="853618779_0" arrivalPos="120.03" arrivalSpeed="13.64" duration="103.00" routeLength="1094.49" waitingTime="6.00" waitingCount="1" stopTime="0.00" timeLoss="29.07" rerouteNo="1" devices="tripinfo_bus3 routing_bus3" vType="bus_bus" speedFactor="1.00" vaporized=""/>
    <tripinfo id="truck4" depart="100.00" departLane="338477202#0_0" departPos="7.20" departSpeed="13.01" departDelay="0.92" arrival="261.00" arrivalLane="1054315845#0_0" arrivalPos="668.36" arrivalSpeed="15.37" duration="161.00" routeLength="1998.97" waitingTime="0.00" waitingCount="0" stopTime="0.00" timeLoss="16.35" rerouteNo="1" devices="tripinfo_truck4 routing_truck4" vType="truck_truck" speedFactor="0.94" vaporized=""/>
    <tripinfo id="veh7" depart="116.00" departLane="29547797#0_0" departPos="5.10" departSpeed="12.87" departDelay="0.41" arrival="268.00" arrivalLane="-27258652#0_0" arrivalPos="178.02" arrivalSpeed="20.40" duration="152.00" routeLength="1430.66" waitingTime="19.00" waitingCount="1" stopTime="0.00" timeLoss="44.82" rerouteNo="1" devices="tripinfo_veh7 routing_veh7" vType="veh_passenger" speedFactor="0.93" vaporized=""/>
    <tripinfo id="veh10" depart="166.00" departLane="1217689481#0_0" departPos="5.10" departSpeed="13.00" departDelay="0.86" arrival="272.00" arrivalLane="653727192_2" arrivalPos="183.16" arrivalSpeed="15.14" duration="106.00" routeLength="1126.02" waitingTime="0.00" waitingCount="0" stopTime="0.00" timeLoss="18.94" rerouteNo="1" devices="tripinfo_veh10 routing_veh10" vType="veh_passenger" speedFactor="0.94" vaporized=""/>
    <tripinfo id="motorcycle4" depart="199.00" departLane="-1217689481#1_0" departPos="2.30" departSpeed="13.03" departDelay="0.84" arrival="274.00" arrivalLane="-853618779_0" arrivalPos="123.00" arrivalSpeed="11.58" duration="75.00" routeLength="720.41" waitingTime="0.00" waitingCount="0" stopTime="0.00" timeLoss="14.74" rerouteNo="1" devices="tripinfo_motorcycle4 routing_motorcycle4" vType="motorcycle_motorcycle" speedFactor="0.94" vaporized=""/>
    <tripinfo id="veh11" depart="182.00" departLane="-35260374_0" departPos="5.10" departSpeed="16.09" departDelay="0.35" arrival="274.00" arrivalLane="-1392084253_0" arrivalPos="199.91" arrivalSpeed="19.15" duration="92.00" routeLength="1131.79" waitingTime="0.00" waitingCount="0" stopTime="0.00" timeLoss="27.14" rerouteNo="1" devices="tripinfo_veh11 routing_veh11" vType="veh_passenger" speedFactor="1.16" vaporized=""/>
    <tripinfo id="truck5" depart="124.00" departLane="-27258652#1_0" departPos="7.20" departSpeed="21.30" departDelay="0.15" arrival="278.00" arrivalLane="-29547797#0_0" arrivalPos="40.74" arrivalSpeed="13.13" duration="154.00" routeLength="1468.95" waitingTime="14.00" waitingCount="1" stopTime="0.00" timeLoss="48.79" rerouteNo="1" devices="tripinfo_truck5 routing_truck5" vType="truck_truck" speedFactor="0.96" vaporized=""/>
    <tripinfo id="veh14" depart="232.00" departLane="35260368#0_0" departPos="5.10" departSpeed="13.54" departDelay="0.81" arrival="280.00" arrivalLane="35260374_0" arrivalPos="84.15" arrivalSpeed="13.22" duration="48.00" routeLength="506.88" waitingTime="0.00" waitingCount="0" stopTime="0.00" timeLoss="7.63" rerouteNo="1" devices="tripinfo_veh14 routing_veh14" vType="veh_passenger" speedFactor="0.97" vaporized=""/>
    <tripinfo id="veh12" depart="200.00" departLane="35260359#0_0" departPos="5.10" departSpeed="0.00" departDelay="1.84" arrival="281.00" arrivalLane="560538898#0_0" arrivalPos="161.55" arrivalSpeed="16.80" duration="81.00" routeLength="834.21" waitingTime="0.00" waitingCount="0" stopTime="0.00" timeLoss="19.48" rerouteNo="1" devices="tripinfo_veh12 routing_veh12" vType="veh_passenger" speedFactor="1.02" vaporized=""/>
    <tripinfo id="truck6" depart="149.00" departLane="-853618778#3_0" departPos="7.20" departSpeed="0.00" departDelay="0.38" arrival="290.00" arrivalLane="27258666_0" arrivalPos="147.36" arrivalSpeed="13.20" duration="141.00" routeLength="1139.94" waitingTime="17.00" waitingCount="1" stopTime="0.00" timeLoss="56.91" rerouteNo="1" devices="tripinfo_truck6 routing_truck6" vType="truck_truck" speedFactor="0.97" vaporized=""/>
    <tripinfo id="truck7" depart="174.00" departLane="-27258652#1_0" departPos="7.20" departSpeed="23.68" departDelay="0.61" arrival="296.00" arrivalLane="338477202#2_0" arrivalPos="32.51" arrivalSpeed="10.85" duration="122.00" routeLength="1358.40" waitingTime="7.00" waitingCount="1" stopTime="0.00" timeLoss="35.40" rerouteNo="1" devices="tripinfo_truck7 routing_truck7" vType="truck_truck" speedFactor="1.07" vaporized=""/>
    <tripinfo id="motorcycle3" depart="149.00" departLane="-894912572_0" departPos="2.30" departSpeed="0.00" departDelay="0.38" arrival="301.00" arrivalLane="1054315845#0_0" arrivalPos="668.36" arrivalSpeed="14.01" duration="152.00" routeLength="1624.32" waitingTime="0.00" waitingCount="0" stopTime="0.00" timeLoss="28.39" rerouteNo="1" devices="tripinfo_motorcycle3 routing_motorcycle3" vType="motorcycle_motorcycle" speedFactor="0.89" vaporized=""/>
    <tripinfo id="truck8" depart="199.00" departLane="360438707_0" departPos="7.20" departSpeed="13.41" departDelay="0.84" arrival="303.00" arrivalLane="338477202#2_0" arrivalPos="32.51" arrivalSpeed="10.97" duration="104.00" routeLength="1022.40" waitingTime="1.00" waitingCount="1" stopTime="0.00" timeLoss="29.33" rerouteNo="1" devices="tripinfo_truck8 routing_truck8" vType="truck_truck" speedFactor="0.97" vaporized=""/>
    <tripinfo id="veh13" depart="215.00" departLane="-961323605#1_0" departPos="5.10" departSpeed="0.00" departDelay="0.32" arrival="309.00" arrivalLane="-1392084250_2" arrivalPos="184.95" arrivalSpeed="16.38" duration="94.00" routeLength="930.49" waitingTime="9.00" waitingCount="2" stopTime="0.00" timeLoss="31.30" rerouteNo="1" devices="tripinfo_veh13 routing_veh13" vType="veh_passenger" speedFactor="1.01" vaporized=""/>
    <tripinfo id="motorcycle5" depart="248.00" departLane="158467737#1_0" departPos="2.30" departSpeed="0.00" departDelay="0.30" arrival="312.00" arrivalLane="35260368#1_0" arrivalPos="32.22" arrivalSpeed="10.69" duration="64.00" routeLength="492.14" waitingTime="0.00" waitingCount="0" stopTime="0.00" timeLoss="16.29" rerouteNo="1" devices="tripinfo_motorcycle5 routing_motorcycle5" vType="motorcycle_motorcycle" speedFactor="0.86" vaporized=""/>
    <tripinfo id="bus4" depart="199.00" departLane="35260360#1_0" departPos="12.10" departSpeed="0.00" departDelay="0.84" arrival="321.00" arrivalLane="-1392084253_0" arrivalPos="199.91" arrivalSpeed="16.46" duration="122.00" routeLength="1208.42" waitingTime="6.00" waitingCount="1" stopTime="0.00" timeLoss="39.97" rerouteNo="1" devices="tripinfo_bus4 routing_bus4" vType="bus_bus" speedFactor="1.00" vaporized=""/>
    <tripinfo id="truck9" depart="223.00" departLane="1392084244#0_0" departPos="7.20" departSpeed="0.00" departDelay="0.07" arrival="332.00" arrivalLane="338477202#2_0" arrivalPos="32.51" arrivalSpeed="11.28" duration="109.00" routeLength="844.84" waitingTime="19.00" waitingCount="2" stopTime="0.00" timeLoss="56.08" rerouteNo="1" devices="tripinfo_truck9 routing_truck9" vType="truck_truck" speedFactor="1.09" vaporized=""/>
    <tripinfo id="veh16" depart="265.00" departLane="555020953#0_0" departPos="5.10" departSpeed="0.00" departDelay="0.78" arrival="346.00" arrivalLane="338477202#1_0" arrivalPos="48.58" arrivalSpeed="13.12" duration="81.00" routeLength="711.18" waitingTime="12.00" waitingCount="1" stopTime="0.00" timeLoss="30.15" rerouteNo="1" devices="tripinfo_veh16 routing_veh16" vType="veh_passenger" speedFactor="0.97" vaporized=""/>
    <tripinfo id="motorcycle6" depart="298.00" departLane="-853618779_0" departPos="2.30" departSpeed="0.00" departDelay="0.76" arrival="366.00" arrivalLane="-338477202#0_0" arrivalPos="681.63" arrivalSpeed="13.05" duration="68.00" routeLength="909.75" waitingTime="0.00" waitingCount="0" stopTime="0.00" timeLoss="9.85" rerouteNo="1" devices="tripinfo_motorcycle6 routing_motorcycle6" vType="motorcycle_motorcycle" speedFactor="1.15" vaporized=""/>
    <tripinfo id="veh17" depart="281.00" departLane="-35260369#2_0" departPos="5.10" departSpeed="0.00" departDelay="0.27" arrival="392.00" arrivalLane="1054315845#0_0" arrivalPos="668.36" arrivalSpeed="19.15" duration="111.00" routeLength="1225.77" waitingTime="19.00" waitingCount="2" stopTime="0.00" timeLoss="42.55" rerouteNo="1" devices="tripinfo_veh17 routing_veh17" vType="veh_passenger" speedFactor="1.18" vaporized=""/>
    <tripinfo id="bus5" depart="248.00" departLane="-27258652#1_0" departPos="12.10" departSpeed="22.22" departDelay="0.30" arrival="396.00" arrivalLane="-35260368#0_0" arrivalPos="114.89" arrivalSpeed="13.64" duration="148.00" routeLength="1739.68" waitingTime="0.00" waitingCount="0" stopTime="0.00" timeLoss="28.05" rerouteNo="1" devices="tripinfo_bus5 routing_bus5" vType="bus_bus" speedFactor="1.00" vaporized=""/>
    <tripinfo id="veh20" depart="331.00" departLane="-338477202#2_0" departPos="5.10" departSpeed="14.31" departDelay="0.73" arrival="400.00" arrivalLane="-35260368#0_0" arrivalPos="114.89" arrivalSpeed="14.08" duration="69.00" routeLength="663.57" waitingTime="0.00" waitingCount="0" stopTime="0.00" timeLoss="19.65" rerouteNo="1" devices="tripinfo_veh20 routing_veh20" vType="veh_passenger" speedFactor="1.03" vaporized=""/>
    <tripinfo id="bus6" depart="298.00" departLane="-27258697_0" departPos="12.10" departSpeed="13.89" departDelay="0.76" arrival="401.00" arrivalLane="-35260369#2_0" arrivalPos="32.50" arrivalSpeed="8.18" duration="103.00" routeLength="1047.93" waitingTime="0.00" waitingCount="0" stopTime="0.00" timeLoss="25.79" rerouteNo="1" devices="tripinfo_bus6 routing_bus6" vType="bus_bus" speedFactor="1.00" vaporized=""/>
    <tripinfo id="veh19" depart="314.00" departLane="-564298126#9_1" departPos="5.10" departSpeed="0.00" departDelay="0.24" arrival="408.00" arrivalLane="560538898#0_0" arrivalPos="161.55" arrivalSpeed="14.45" duration="94.00" routeLength="717.76" waitingTime="23.00" waitingCount="2" stopTime="0.00" timeLoss="45.01" rerouteNo="1" devices="tripinfo_veh19 routing_veh19" vType="veh_passenger" speedFactor="0.90" vaporized=""/>
    <tripinfo id="truck13" depart="323.00" departLane="1392084253_0" departPos="7.20" departSpeed="15.46" departDelay="0.99" arrival="413.00" arrivalLane="-368175444#1_0" arrivalPos="41.59" arrivalSpeed="12.62" duration="90.00" routeLength="798.65" waitingTime="19.00" waitingCount="1" stopTime="0.00" timeLoss="35.37" rerouteNo="1" devices="tripinfo_truck13 routing_truck13" vType="truck_truck" speedFactor="0.93" vaporized=""/>
    <tripinfo id="veh15" depart="248.00" departLane="338477202#0_0" departPos="5.10" departSpeed="14.16" departDelay="0.30" arrival="417.00" arrivalLane="-360438708_0" arrivalPos="61.72" arrivalSpeed="13.82" duration="169.00" routeLength="1668.06" waitingTime="22.00" waitingCount="2" stopTime="0.00" timeLoss="52.37" rerouteNo="1" devices="tripinfo_veh15 routing_veh15" vType="veh_passenger" speedFactor="1.02" vaporized=""/>
    <tripinfo id="truck11" depart="273.00" departLane="-35260360#2_0" departPos="7.20" departSpeed="0.00" departDelay="0.53" arrival="422.00" arrivalLane="-1392084253_0" arrivalPos="199.91" arrivalSpeed="15.58" duration="149.00" routeLength="1234.19" waitingTime="16.00" waitingCount="1" stopTime="0.00" timeLoss="59.84" rerouteNo="1" devices="tripinfo_truck11 routing_truck11" vType="truck_truck" speedFactor="0.94" vaporized=""/>
    <tripinfo id="veh23" depart="380.00" departLane="-560538898#1_0" departPos="5.10" departSpeed="17.30" departDelay="0.19" arrival="424.00" arrivalLane="564298119#0_0" arrivalPos="159.78" arrivalSpeed="17.26" duration="44.00" routeLength="558.13" waitingTime="3.00" waitingCount="1" stopTime="0.00" timeLoss="10.04" rerouteNo="1" devices="tripinfo_veh23 routing_veh23" vType="veh_passenger" speedFactor="1.04" vaporized=""/>
    <tripinfo id="veh18" depart="298.00" departLane="360438707_0" departPos="5.10" departSpeed="15.31" departDelay="0.76" arrival="425.00" arrivalLane="35260361#1_0" arrivalPos="3.52" arrivalSpeed="9.42" duration="127.00" routeLength="1175.12" waitingTime="7.00" waitingCount="2" stopTime="0.00" timeLoss="51.81" rerouteNo="1" devices="tripinfo_veh18 routing_veh18" vType="veh_passenger" speedFactor="1.10" vaporized=""/>
    <tripinfo id="motorcycle7" depart="347.00" departLane="360438708_0" departPos="2.30" departSpeed="13.96" departDelay="0.22" arrival="434.00" arrivalLane="35260379#1_0" arrivalPos="97.55" arrivalSpeed="12.64" duration="87.00" routeLength="940.29" waitingTime="0.00" waitingCount="0" stopTime="0.00" timeLoss="22.89" rerouteNo="1" devices="tripinfo_motorcycle7 routing_motorcycle7" vType="motorcycle_motorcycle" speedFactor="1.01" vaporized=""/>
    <tripinfo id="truck12" depart="298.00" departLane="-249396544#1_0" departPos="7.20" departSpeed="0.00" departDelay="0.76" arrival="443.00" arrivalLane="35260368#1_0" arrivalPos="32.22" arrivalSpeed="8.25" duration="145.00" routeLength="1131.79" waitingTime="11.00" waitingCount="2" stopTime="0.00" timeLoss="56.90" rerouteNo="1" devices="tripinfo_truck12 routing_truck12" vType="truck_truck" speedFactor="0.93" vaporized=""/>
    <tripinfo id="veh21" depart="347.00" departLane="29547826_0" departPos="5.10" departSpeed="0.00" departDelay="0.22" arrival="444.00" arrivalLane="249396544#3_0" arrivalPos="36.94" arrivalSpeed="13.01" duration="97.00" routeLength="927.09" waitingTime="8.00" waitingCount="1" stopTime="0.00" timeLoss="28.67" rerouteNo="1" devices="tripinfo_veh21 routing_veh21" vType="veh_passenger" speedFactor="0.96" vaporized=""/>
    <tripinfo id="motorcycle8" depart="397.00" departLane="-712245744#1_0" departPos="2.30" departSpeed="0.00" departDelay="0.67" arrival="448.00" arrivalLane="-27258652#0_0" arrivalPos="178.02" arrivalSpeed="25.26" duration="51.00" routeLength="658.63" waitingTime="0.00" waitingCount="0" stopTime="0.00" timeLoss="13.19" rerouteNo="1" devices="tripinfo_motorcycle8 routing_motorcycle8" vType="motorcycle_motorcycle" speedFactor="1.17" vaporized=""/>
    <tripinfo id="truck10" depart="249.00" departLane="338477202#0_0" departPos="7.20" departSpeed="9.79" departDelay="1.30" arrival="453.00" arrivalLane="27258652#1_0" arrivalPos="230.98" arrivalSpeed="20.92" duration="204.00" routeLength="2036.83" waitingTime="13.00" waitingCount="1" stopTime="0.00" timeLoss="54.16" rerouteNo="1" devices="tripinfo_truck10 routing_truck10" vType="truck_truck" speedFactor="0.95" vaporized=""/>
    <tripinfo id="bus7" depart="347.00" departLane="961323605#1_0" departPos="12.10" departSpeed="0.00" departDelay="0.22" arrival="459.00" arrivalLane="1054315845#0_0" arrivalPos="668.36" arrivalSpeed="16.34" duration="112.00" routeLength="1189.62" waitingTime="3.00" waitingCount="1" stopTime="0.00" timeLoss="31.14" rerouteNo="1" devices="tripinfo_bus7 routing_bus7" vType="bus_bus" speedFactor="1.00" vaporized=""/>
    <tripinfo id="veh26" depart="430.00" departLane="-35260359#1_0" departPos="5.10" departSpeed="0.00" departDelay="0.65" arrival="481.00" arrivalLane="338477202#2_0" arrivalPos="32.51" arrivalSpeed="13.25" duration="51.00" routeLength="501.49" waitingTime="0.00" waitingCount="0" stopTime="0.00" timeLoss="11.95" rerouteNo="1" devices="tripinfo_veh26 routing_veh26" vType="veh_passenger" speedFactor="1.00" vaporized=""/>
    <tripinfo id="veh24" depart="397.00" departLane="27258667_0" departPos="5.10" departSpeed="0.00" departDelay="0.67" arrival="484.00" arrivalLane="-1392084253_0" arrivalPos="199.91" arrivalSpeed="17.37" duration="87.00" routeLength="963.07" waitingTime="8.00" waitingCount="1" stopTime="0.00" timeLoss="22.23" rerouteNo="1" devices="tripinfo_veh24 routing_veh24" vType="veh_passenger" speedFactor="1.04" vaporized=""/>
    <tripinfo id="truck14" depart="347.00" departLane="27258652#0_0" departPos="7.20" departSpeed="24.10" departDelay="0.22" arrival="489.00" arrivalLane="35260368#2_0" arrivalPos="29.07" arrivalSpeed="10.38" duration="142.00" routeLength="1559.75" waitingTime="4.00" waitingCount="1" stopTime="0.00" timeLoss="41.38" rerouteNo="1" devices="tripinfo_truck14 routing_truck14" vType="truck_truck" speedFactor="1.08" vaporized=""/>
    <tripinfo id="veh22" depart="364.00" departLane="-35260361#1_0" departPos="3.52" departSpeed="0.00" departDelay="0.70" arrival="499.00" arrivalLane="-27258652#0_0" arrivalPos="178.02" arrivalSpeed="23.91" duration="135.00" routeLength="1462.98" waitingTime="10.00" waitingCount="1" stopTime="0.00" timeLoss="42.40" rerouteNo="1" devices="tripinfo_veh22 routing_veh22" vType="veh_passenger" speedFactor="1.09" vaporized=""/>
    <tripinfo id="veh28" depart="463.00" departLane="564298145#0_2" departPos="5.10" departSpeed="18.66" departDelay="0.62" arrival="512.00" arrivalLane="560538898#0_2" arrivalPos="161.55" arrivalSpeed="18.24" duration="49.00" routeLength="673.19" waitingTime="3.00" waitingCount="1" stopTime="0.00" timeLoss="11.47" rerouteNo="1" devices="tripinfo_veh28 routing_veh28" vType="veh_passenger" speedFactor="1.12" vaporized=""/>
    <tripinfo id="veh27" depart="446.00" departLane="564298145#0_2" departPos="5.10" departSpeed="18.05" departDelay="0.13" arrival="526.00" arrivalLane="29547816_0" arrivalPos="100.62" arrivalSpeed="14.31" duration="80.00" routeLength="985.72" waitingTime="0.00" waitingCount="0" stopTime="0.00" timeLoss="15.75" rerouteNo="1" devices="tripinfo_veh27 routing_veh27" vType="veh_passenger" speedFactor="1.08" vaporized=""/>
    <tripinfo id="truck16" depart="397.00" departLane="27258652#0_0" departPos="7.20" departSpeed="23.28" departDelay="0.67" arrival="531.00" arrivalLane="853618778#0_0" arrivalPos="50.11" arrivalSpeed="11.61" duration="134.00" routeLength="1264.50" waitingTime="19.00" waitingCount="1" stopTime="0.00" timeLoss="51.57" rerouteNo="1" devices="tripinfo_truck16 routing_truck16" vType="truck_truck" speedFactor="1.05" vaporized=""/>
    <tripinfo id="bus9" depart="446.00" departLane="902535590_0" departPos="12.10" departSpeed="13.89" departDelay="0.13" arrival="541.00" arrivalLane="560538898#0_0" arrivalPos="161.55" arrivalSpeed="16.61" duration="95.00" routeLength="717.36" waitingTime="28.00" waitingCount="2" stopTime="0.00" timeLoss="50.23" rerouteNo="1" devices="tripinfo_bus9 routing_bus9" vType="bus_bus" speedFactor="1.00" vaporized=""/>
    <tripinfo id="veh25" depart="413.00" departLane="29547797#0_0" departPos="5.10" departSpeed="15.11" departDelay="0.16" arrival="541.00" arrivalLane="-27258666_0" arrivalPos="147.36" arrivalSpeed="13.93" duration="128.00" routeLength="1297.88" waitingTime="2.00" waitingCount="2" stopTime="0.00" timeLoss="40.92" rerouteNo="1" devices="tripinfo_veh25 routing_veh25" vType="veh_passenger" speedFactor="1.09" vaporized=""/>
    <tripinfo id="truck17" depart="422.00" departLane="360438708_0" departPos="7.20" departSpeed="13.91" departDelay="0.90" arrival="548.00" arrivalLane="35260374_0" arrivalPos="84.15" arrivalSpeed="13.74" duration="126.00" routeLength="1031.49" waitingTime="11.00" waitingCount="2" stopTime="0.00" timeLoss="53.88" rerouteNo="1" devices="tripinfo_truck17 routing_truck17" vType="truck_truck" speedFactor="1.00" vaporized=""/>
    <tripinfo id="veh29" depart="479.00" departLane="-35260379#1_0" departPos="5.10" departSpeed="0.00" departDelay="0.11" arrival="549.00" arrivalLane="853618778#6_0" arrivalPos="256.37" arrivalSpeed="12.81" duration="70.00" routeLength="823.87" waitingTime="0.00" waitingCount="0" stopTime="0.00" timeLoss="10.45" rerouteNo="1" devices="tripinfo_veh29 routing_veh29" vType="veh_passenger" speedFactor="1.02" vaporized=""/>