<?xml version="1.0" encoding="UTF-8"?>

<!-- generated on 2025-08-30 20:05:02 by Eclipse SUMO GUI Version 1.24.0
<sumoConfiguration xmlns:xsi="http://www.w3.org/2001/XMLSchema-instance" xsi:noNamespaceSchemaLocation="http://sumo.dlr.de/xsd/sumoConfiguration.xsd">

    <input>
        <net-file value="C:\Users\kgaqu\OneDrive\Documents\4th Year\Capstone 2\Networks\2025-08-30-20-04-51\osm.net.xml.gz"/>
        <route-files value="C:\Users\kgaqu\OneDrive\Documents\4th Year\Capstone 2\Networks\2025-08-30-20-04-51\osm.bus.trips.xml,C:\Users\kgaqu\OneDrive\Documents\4th Year\Capstone 2\Networks\2025-08-30-20-04-51\osm.motorcycle.trips.xml,C:\Users\kgaqu\OneDrive\Documents\4th Year\Capstone 2\Networks\2025-08-30-20-04-51\osm.passenger.trips.xml,C:\Users\kgaqu\OneDrive\Documents\4th Year\Capstone 2\Networks\2025-08-30-20-04-51\osm.truck.trips.xml"/>
        <additional-files value="C:\Users\kgaqu\OneDrive\Documents\4th Year\Capstone 2\Networks\2025-08-30-20-04-51\output.add.xml"/>
    </input>

    <output>
        <tripinfo-output value="C:\Users\kgaqu\OneDrive\Documents\4th Year\Capstone 2\Networks\2025-08-30-20-04-51\tripinfos.xml"/>
        <statistic-output value="C:\Users\kgaqu\OneDrive\Documents\4th Year\Capstone 2\Networks\2025-08-30-20-04-51\stats.xml"/>
    </output>

    <processing>
        <ignore-route-errors value="true"/>
        <tls.actuated.jam-threshold value="30"/>
    </processing>

    <routing>
        <device.rerouting.adaptation-steps value="18"/>
        <device.rerouting.adaptation-interval value="10"/>
    </routing>

    <report>
        <verbose value="true"/>
        <duration-log.statistics value="true"/>
        <no-step-log value="true"/>
    </report>

    <gui_only>
        <gui-settings-file value="C:\Users\kgaqu\OneDrive\Documents\4th Year\Capstone 2\Networks\2025-08-30-20-04-51\osm.view.xml"/>
    </gui_only>

</sumoConfiguration>
-->

<meandata xmlns:xsi="http://www.w3.org/2001/XMLSchema-instance" xsi:noNamespaceSchemaLocation="http://sumo.dlr.de/xsd/meandata_file.xsd">
    <interval begin="0.00" end="1746.00" id="wizard_example">
        <edge id="-1030819534" sampledSeconds="80.98" traveltime="6.80" overlapTraveltime="7.38" density="0.62" laneDensity="0.62" occupancy="0.29" waitingTime="0.00" timeLoss="14.87" speed="10.84" speedRelative="0.78" departed="1" arrived="0" entered="10" left="11" laneChangedFrom="0" laneChangedTo="0"/>
        <edge id="-1065952538" sampledSeconds="587.95" traveltime="5.26" overlapTraveltime="5.85" density="6.75" laneDensity="6.75" occupancy="4.05" waitingTime="0.00" timeLoss="177.18" speed="9.74" speedRelative="0.70" departed="0" arrived="0" entered="101" left="101" laneChangedFrom="0" laneChangedTo="0"/>
        <edge id="-1217689481#0" sampledSeconds="15.82" traveltime="4.94" overlapTraveltime="5.39" density="0.14" laneDensity="0.14" occupancy="0.08" waitingTime="0.00" timeLoss="1.44" speed="12.92" speedRelative="0.93" departed="0" arrived="3" entered="3" left="0" laneChangedFrom="0" laneChangedTo="0"/>
        <edge id="-1217689481#1" sampledSeconds="14.41" traveltime="4.61" overlapTraveltime="5.24" density="0.18" laneDensity="0.18" occupancy="0.07" waitingTime="0.00" timeLoss="4.08" speed="9.71" speedRelative="0.70" departed="3" arrived="0" entered="0" left="3" laneChangedFrom="0" laneChangedTo="0"/>
        <edge id="-1392084244#1" sampledSeconds="98.14" traveltime="3.17" overlapTraveltime="3.99" density="1.52" laneDensity="0.76" occupancy="0.41" waitingTime="0.00" timeLoss="25.85" speed="10.87" speedRelative="0.65" departed="3" arrived="1" entered="22" left="24" laneChangedFrom="0" laneChangedTo="0"/>
        <edge id="-1392084250" sampledSeconds="1160.37" traveltime="13.34" overlapTraveltime="13.92" density="3.59" laneDensity="1.20" occupancy="0.70" waitingTime="23.00" timeLoss="194.19" speed="13.73" speedRelative="0.82" departed="1" arrived="6" entered="83" left="77" laneChangedFrom="37" laneChangedTo="37"/>
        <edge id="-1392084253" sampledSeconds="147.45" traveltime="12.04" overlapTraveltime="12.44" density="0.42" laneDensity="0.21" occupancy="0.14" waitingTime="0.00" timeLoss="5.23" speed="16.60" speedRelative="1.00" departed="0" arrived="12" entered="12" left="0" laneChangedFrom="0" laneChangedTo="0"/>
        <edge id="-158467737#0" sampledSeconds="12.08" traveltime="5.46" overlapTraveltime="6.28" density="0.14" laneDensity="0.14" occupancy="0.08" waitingTime="0.00" timeLoss="3.71" speed="9.27" speedRelative="0.67" departed="0" arrived="1" entered="2" left="1" laneChangedFrom="0" laneChangedTo="0"/>
        <edge id="-249396544#1" sampledSeconds="1061.49" traveltime="20.55" overlapTraveltime="22.16" density="3.93" laneDensity="3.93" occupancy="2.55" waitingTime="217.00" timeLoss="490.85" speed="7.30" speedRelative="0.53" departed="2" arrived="0" entered="46" left="48" laneChangedFrom="0" laneChangedTo="0"/>
        <edge id="-249396544#2" sampledSeconds="62.80" traveltime="6.54" overlapTraveltime="7.00" density="0.47" laneDensity="0.47" occupancy="0.26" waitingTime="0.00" timeLoss="9.56" speed="11.79" speedRelative="0.85" departed="1" arrived="1" entered="8" left="8" laneChangedFrom="0" laneChangedTo="0"/>
        <edge id="-249396544#3" sampledSeconds="45.67" traveltime="5.92" overlapTraveltime="6.73" density="0.71" laneDensity="0.71" occupancy="0.44" waitingTime="0.00" timeLoss="24.10" speed="6.61" speedRelative="0.48" departed="1" arrived="2" entered="6" left="5" laneChangedFrom="0" laneChangedTo="0"/>
        <edge id="-27258652#0" sampledSeconds="132.31" traveltime="11.83" overlapTraveltime="12.12" density="0.43" laneDensity="0.43" occupancy="0.22" waitingTime="0.00" timeLoss="41.43" speed="15.14" speedRelative="0.68" departed="0" arrived="11" entered="11" left="0" laneChangedFrom="0" laneChangedTo="0"/>
        <edge id="-27258652#1" sampledSeconds="211.24" traveltime="12.40" overlapTraveltime="13.60" density="0.52" laneDensity="0.52" occupancy="0.34" waitingTime="0.00" timeLoss="26.36" speed="17.48" speedRelative="0.79" departed="16" arrived="0" entered="0" left="16" laneChangedFrom="0" laneChangedTo="0"/>
        <edge id="-27258666" sampledSeconds="56.62" traveltime="13.67" overlapTraveltime="14.40" density="0.22" laneDensity="0.22" occupancy="0.11" waitingTime="0.00" timeLoss="13.05" speed="10.58" speedRelative="0.76" departed="2" arrived="1" entered="2" left="3" laneChangedFrom="0" laneChangedTo="0"/>
        <edge id="-27258667" sampledSeconds="146.39" traveltime="17.11" overlapTraveltime="18.67" density="0.49" laneDensity="0.49" occupancy="0.33" waitingTime="0.00" timeLoss="45.61" speed="9.55" speedRelative="0.69" departed="3" arrived="2" entered="5" left="6" laneChangedFrom="0" laneChangedTo="0"/>
        <edge id="-27258697" sampledSeconds="193.62" traveltime="27.03" overlapTraveltime="28.32" density="0.31" laneDensity="0.31" occupancy="0.24" waitingTime="0.00" timeLoss="14.69" speed="12.94" speedRelative="0.93" departed="7" arrived="0" entered="0" left="7" laneChangedFrom="0" laneChangedTo="0"/>
        <edge id="-273622079#0" sampledSeconds="0.00" departed="0" arrived="0" entered="0" left="0" laneChangedFrom="0" laneChangedTo="0"/>
        <edge id="-273622079#1" sampledSeconds="0.00" departed="0" arrived="0" entered="0" left="0" laneChangedFrom="0" laneChangedTo="0"/>
        <edge id="-29547797#0" sampledSeconds="10.28" traveltime="3.02" overlapTraveltime="3.44" density="0.14" laneDensity="0.14" occupancy="0.07" waitingTime="0.00" timeLoss="0.48" speed="13.48" speedRelative="0.97" departed="0" arrived="3" entered="3" left="0" laneChangedFrom="0" laneChangedTo="0"/>
        <edge id="-29547797#1" sampledSeconds="42.86" traveltime="8.24" overlapTraveltime="8.93" density="0.27" laneDensity="0.27" occupancy="0.16" waitingTime="0.00" timeLoss="8.95" speed="11.03" speedRelative="0.79" departed="0" arrived="0" entered="5" left="4" laneChangedFrom="0" laneChangedTo="0"/>
        <edge id="-29547816" sampledSeconds="67.05" traveltime="10.59" overlapTraveltime="11.37" density="0.38" laneDensity="0.38" occupancy="0.18" waitingTime="0.00" timeLoss="19.03" speed="9.29" speedRelative="0.67" departed="2" arrived="1" entered="4" left="5" laneChangedFrom="0" laneChangedTo="0"/>
        <edge id="-29547818" sampledSeconds="69.17" traveltime="12.93" overlapTraveltime="14.25" density="0.36" laneDensity="0.36" occupancy="0.27" waitingTime="0.00" timeLoss="26.85" speed="8.32" speedRelative="0.60" departed="3" arrived="0" entered="2" left="5" laneChangedFrom="0" laneChangedTo="0"/>
        <edge id="-29547826" sampledSeconds="18.87" traveltime="4.00" overlapTraveltime="4.73" density="0.27" laneDensity="0.27" occupancy="0.11" waitingTime="0.00" timeLoss="4.68" speed="9.27" speedRelative="0.67" departed="0" arrived="0" entered="4" left="4" laneChangedFrom="0" laneChangedTo="0"/>
        <edge id="-338477202#0" sampledSeconds="363.72" traveltime="50.34" overlapTraveltime="50.84" density="0.31" laneDensity="0.31" occupancy="0.20" waitingTime="0.00" timeLoss="26.63" speed="13.54" speedRelative="0.97" departed="0" arrived="7" entered="8" left="0" laneChangedFrom="0" laneChangedTo="0"/>
        <edge id="-338477202#1" sampledSeconds="14.79" traveltime="7.39" overlapTraveltime="8.24" density="0.18" laneDensity="0.18" occupancy="0.09" waitingTime="0.00" timeLoss="6.54" speed="6.53" speedRelative="0.47" departed="2" arrived="0" entered="0" left="2" laneChangedFrom="0" laneChangedTo="0"/>
        <edge id="-338477202#2" sampledSeconds="13.18" traveltime="2.87" overlapTraveltime="4.03" density="0.23" laneDensity="0.23" occupancy="0.13" waitingTime="0.00" timeLoss="2.14" speed="9.76" speedRelative="0.70" departed="4" arrived="0" entered="0" left="4" laneChangedFrom="0" laneChangedTo="0"/>
        <edge id="-35260359#0" sampledSeconds="55.68" traveltime="9.68" overlapTraveltime="11.26" density="0.46" laneDensity="0.46" occupancy="0.25" waitingTime="8.00" timeLoss="27.51" speed="6.69" speedRelative="0.48" departed="1" arrived="0" entered="4" left="5" laneChangedFrom="0" laneChangedTo="0"/>
        <edge id="-35260359#1" sampledSeconds="11.43" traveltime="6.09" overlapTraveltime="6.45" density="0.16" laneDensity="0.16" occupancy="0.08" waitingTime="0.00" timeLoss="5.77" speed="6.98" speedRelative="0.50" departed="2" arrived="0" entered="0" left="2" laneChangedFrom="0" laneChangedTo="0"/>
        <edge id="-35260360#0" sampledSeconds="0.00" departed="0" arrived="0" entered="0" left="0" laneChangedFrom="0" laneChangedTo="0"/>
        <edge id="-35260360#1" sampledSeconds="14.62" traveltime="9.50" overlapTraveltime="10.56" density="0.31" laneDensity="0.31" occupancy="0.32" waitingTime="0.00" timeLoss="9.49" speed="3.72" speedRelative="0.27" departed="2" arrived="0" entered="0" left="2" laneChangedFrom="0" laneChangedTo="0"/>
        <edge id="-35260360#2" sampledSeconds="15.41" traveltime="5.00" overlapTraveltime="6.12" density="0.37" laneDensity="0.37" occupancy="0.23" waitingTime="0.00" timeLoss="8.71" speed="5.13" speedRelative="0.37" departed="2" arrived="1" entered="1" left="2" laneChangedFrom="0" laneChangedTo="0"/>
        <edge id="-35260361#0" sampledSeconds="205.33" traveltime="7.98" overlapTraveltime="9.04" density="1.71" laneDensity="1.71" occupancy="1.05" waitingTime="0.00" timeLoss="70.00" speed="8.35" speedRelative="0.60" departed="2" arrived="0" entered="21" left="23" laneChangedFrom="0" laneChangedTo="0"/>
        <edge id="-35260361#1" sampledSeconds="14.13" overlapTraveltime="4.77" density="2.30" laneDensity="2.30" occupancy="0.67" waitingTime="0.00" timeLoss="9.11" speed="2.41" speedRelative="0.17" departed="5" arrived="0" entered="0" left="5" laneChangedFrom="0" laneChangedTo="0"/>
        <edge id="-35260368#0" sampledSeconds="80.81" traveltime="8.63" overlapTraveltime="9.13" density="0.40" laneDensity="0.40" occupancy="0.26" waitingTime="0.00" timeLoss="2.97" speed="13.32" speedRelative="0.96" departed="0" arrived="9" entered="9" left="0" laneChangedFrom="0" laneChangedTo="0"/>
        <edge id="-35260368#1" sampledSeconds="85.35" traveltime="3.60" overlapTraveltime="4.51" density="1.52" laneDensity="1.52" occupancy="0.80" waitingTime="0.00" timeLoss="26.17" speed="8.61" speedRelative="0.62" departed="0" arrived="0" entered="19" left="19" laneChangedFrom="0" laneChangedTo="0"/>
        <edge id="-35260368#2" sampledSeconds="0.00" departed="0" arrived="0" entered="0" left="0" laneChangedFrom="0" laneChangedTo="0"/>
        <edge id="-35260369#0" sampledSeconds="70.81" traveltime="10.98" overlapTraveltime="12.09" density="0.37" laneDensity="0.37" occupancy="0.24" waitingTime="0.00" timeLoss="18.95" speed="9.61" speedRelative="0.69" departed="3" arrived="0" entered="3" left="6" laneChangedFrom="0" laneChangedTo="0"/>
        <edge id="-35260369#1" sampledSeconds="21.12" traveltime="3.62" overlapTraveltime="4.39" density="0.42" laneDensity="0.42" occupancy="0.23" waitingTime="0.00" timeLoss="8.67" speed="8.09" speedRelative="0.58" departed="1" arrived="0" entered="4" left="5" laneChangedFrom="0" laneChangedTo="0"/>
        <edge id="-35260369#2" sampledSeconds="71.03" traveltime="3.97" overlapTraveltime="4.87" density="1.25" laneDensity="1.25" occupancy="0.66" waitingTime="0.00" timeLoss="24.09" speed="8.03" speedRelative="0.58" departed="1" arrived="3" entered="14" left="12" laneChangedFrom="0" laneChangedTo="0"/>
        <edge id="-35260370" sampledSeconds="0.00" departed="0" arrived="0" entered="0" left="0" laneChangedFrom="0" laneChangedTo="0"/>
        <edge id="-35260374" sampledSeconds="36.96" traveltime="6.97" overlapTraveltime="7.98" density="0.24" laneDensity="0.24" occupancy="0.15" waitingTime="0.00" timeLoss="3.63" speed="11.90" speedRelative="0.86" departed="5" arrived="0" entered="0" left="5" laneChangedFrom="0" laneChangedTo="0"/>
        <edge id="-35260375" sampledSeconds="12.59" traveltime="6.05" overlapTraveltime="6.69" density="0.18" laneDensity="0.18" occupancy="0.06" waitingTime="0.00" timeLoss="5.28" speed="6.60" speedRelative="0.48" departed="1" arrived="0" entered="1" left="2" laneChangedFrom="0" laneChangedTo="0"/>
        <edge id="-35260376#0" sampledSeconds="24.73" traveltime="1.40" overlapTraveltime="2.11" density="1.02" laneDensity="1.02" occupancy="0.41" waitingTime="0.00" timeLoss="4.62" speed="9.43" speedRelative="0.68" departed="0" arrived="1" entered="12" left="11" laneChangedFrom="0" laneChangedTo="0"/>
        <edge id="-35260376#1" sampledSeconds="44.60" traveltime="3.59" overlapTraveltime="4.17" density="0.85" laneDensity="0.85" occupancy="0.43" waitingTime="0.00" timeLoss="16.20" speed="8.69" speedRelative="0.63" departed="1" arrived="0" entered="10" left="11" laneChangedFrom="0" laneChangedTo="0"/>
        <edge id="-35260379#0" sampledSeconds="34.13" traveltime="8.10" overlapTraveltime="8.84" density="0.25" laneDensity="0.25" occupancy="0.12" waitingTime="0.00" timeLoss="10.30" speed="9.57" speedRelative="0.69" departed="2" arrived="1" entered="2" left="3" laneChangedFrom="0" laneChangedTo="0"/>
        <edge id="-35260379#1" sampledSeconds="25.75" traveltime="8.36" overlapTraveltime="8.75" density="0.16" laneDensity="0.16" occupancy="0.08" waitingTime="0.00" timeLoss="5.44" speed="11.03" speedRelative="0.79" departed="1" arrived="2" entered="2" left="1" laneChangedFrom="0" laneChangedTo="0"/>
        <edge id="-360438706#0" sampledSeconds="22.86" traveltime="7.44" overlapTraveltime="7.75" density="0.14" laneDensity="0.14" occupancy="0.06" waitingTime="0.00" timeLoss="1.66" speed="12.38" speedRelative="0.89" departed="0" arrived="3" entered="3" left="0" laneChangedFrom="0" laneChangedTo="0"/>
        <edge id="-360438707" sampledSeconds="10.56" traveltime="10.06" overlapTraveltime="10.56" density="0.05" laneDensity="0.05" occupancy="0.03" waitingTime="0.00" timeLoss="1.44" speed="12.43" speedRelative="0.89" departed="0" arrived="1" entered="1" left="0" laneChangedFrom="0" laneChangedTo="0"/>
        <edge id="-360438708" sampledSeconds="23.77" traveltime="4.49" overlapTraveltime="4.91" density="0.22" laneDensity="0.22" occupancy="0.12" waitingTime="0.00" timeLoss="0.70" speed="13.74" speedRelative="0.99" departed="0" arrived="5" entered="5" left="0" laneChangedFrom="0" laneChangedTo="0"/>
        <edge id="-368175444#1" sampledSeconds="579.05" traveltime="4.62" overlapTraveltime="5.83" density="7.97" laneDensity="7.97" occupancy="4.96" waitingTime="12.00" timeLoss="221.91" speed="8.40" speedRelative="0.60" departed="1" arrived="4" entered="100" left="96" laneChangedFrom="0" laneChangedTo="0"/>
        <edge id="-560538898#1" sampledSeconds="184.54" traveltime="11.00" overlapTraveltime="13.62" density="0.65" laneDensity="0.22" occupancy="0.10" waitingTime="23.00" timeLoss="41.78" speed="12.25" speedRelative="0.73" departed="14" arrived="0" entered="0" left="14" laneChangedFrom="0" laneChangedTo="0"/>
        <edge id="-564298126#9" sampledSeconds="350.23" traveltime="9.30" overlapTraveltime="10.35" density="1.69" laneDensity="0.85" occupancy="0.52" waitingTime="6.00" timeLoss="92.64" speed="12.11" speedRelative="0.73" departed="1" arrived="0" entered="33" left="34" laneChangedFrom="3" laneChangedTo="3"/>
        <edge id="-653727191#1" sampledSeconds="973.85" traveltime="12.14" overlapTraveltime="13.74" density="23.60" laneDensity="7.87" occupancy="4.59" waitingTime="555.00" timeLoss="845.73" speed="2.18" speedRelative="0.13" departed="0" arrived="1" entered="71" left="70" laneChangedFrom="7" laneChangedTo="7"/>
        <edge id="-712245744#1" sampledSeconds="538.61" traveltime="7.20" overlapTraveltime="8.54" density="11.56" laneDensity="3.85" occupancy="2.30" waitingTime="206.00" timeLoss="391.08" speed="3.91" speedRelative="0.23" departed="2" arrived="1" entered="62" left="63" laneChangedFrom="7" laneChangedTo="7"/>
        <edge id="-853618778#0" sampledSeconds="433.30" traveltime="6.25" overlapTraveltime="7.44" density="4.95" laneDensity="4.95" occupancy="2.97" waitingTime="34.00" timeLoss="169.58" speed="7.66" speedRelative="0.55" departed="1" arrived="1" entered="58" left="58" laneChangedFrom="0" laneChangedTo="0"/>
        <edge id="-853618778#2" sampledSeconds="210.36" traveltime="3.64" overlapTraveltime="4.63" density="3.81" laneDensity="3.81" occupancy="2.10" waitingTime="3.00" timeLoss="83.35" speed="8.29" speedRelative="0.60" departed="0" arrived="1" entered="46" left="45" laneChangedFrom="0" laneChangedTo="0"/>
        <edge id="-853618778#3" sampledSeconds="116.22" traveltime="2.37" overlapTraveltime="2.96" density="2.60" laneDensity="2.60" occupancy="1.38" waitingTime="0.00" timeLoss="23.61" speed="10.98" speedRelative="0.79" departed="1" arrived="1" entered="39" left="39" laneChangedFrom="0" laneChangedTo="0"/>
        <edge id="-853618778#4" sampledSeconds="113.74" traveltime="2.98" overlapTraveltime="3.53" density="2.19" laneDensity="2.19" occupancy="1.13" waitingTime="0.00" timeLoss="28.50" speed="10.28" speedRelative="0.74" departed="1" arrived="2" entered="32" left="31" laneChangedFrom="0" laneChangedTo="0"/>
        <edge id="-853618778#5" sampledSeconds="81.23" traveltime="3.39" overlapTraveltime="3.98" density="1.41" laneDensity="1.41" occupancy="0.78" waitingTime="0.00" timeLoss="22.84" speed="9.93" speedRelative="0.72" departed="1" arrived="0" entered="20" left="21" laneChangedFrom="0" laneChangedTo="0"/>
        <edge id="-853618778#6" sampledSeconds="123.94" traveltime="18.75" overlapTraveltime="19.28" density="0.28" laneDensity="0.28" occupancy="0.20" waitingTime="0.00" timeLoss="3.58" speed="13.70" speedRelative="0.99" departed="7" arrived="0" entered="0" left="6" laneChangedFrom="0" laneChangedTo="0"/>
        <edge id="-853618779" sampledSeconds="850.83" traveltime="9.95" overlapTraveltime="10.93" density="3.96" laneDensity="3.96" occupancy="2.47" waitingTime="0.00" timeLoss="97.91" speed="11.87" speedRelative="0.85" departed="1" arrived="3" entered="77" left="75" laneChangedFrom="0" laneChangedTo="0"/>
        <edge id="-853619074" sampledSeconds="54.89" traveltime="2.18" overlapTraveltime="3.14" density="2.00" laneDensity="2.00" occupancy="0.90" waitingTime="0.00" timeLoss="24.02" speed="7.04" speedRelative="0.51" departed="1" arrived="0" entered="17" left="18" laneChangedFrom="0" laneChangedTo="0"/>
        <edge id="-894912572" sampledSeconds="46.45" traveltime="4.03" overlapTraveltime="4.72" density="0.86" laneDensity="0.86" occupancy="0.36" waitingTime="0.00" timeLoss="18.19" speed="7.57" speedRelative="0.55" departed="1" arrived="2" entered="9" left="8" laneChangedFrom="0" laneChangedTo="0"/>
        <edge id="-902535590" sampledSeconds="45.45" traveltime="6.23" overlapTraveltime="6.95" density="0.43" laneDensity="0.43" occupancy="0.29" waitingTime="0.00" timeLoss="13.18" speed="9.76" speedRelative="0.70" departed="0" arrived="7" entered="7" left="0" laneChangedFrom="0" laneChangedTo="0"/>
        <edge id="-938252836" sampledSeconds="580.00" traveltime="14.22" overlapTraveltime="15.31" density="1.98" laneDensity="1.98" occupancy="1.31" waitingTime="0.00" timeLoss="87.01" speed="11.40" speedRelative="0.82" departed="3" arrived="0" entered="35" left="38" laneChangedFrom="0" laneChangedTo="0"/>
        <edge id="-961323605#0" sampledSeconds="137.31" traveltime="3.53" overlapTraveltime="4.14" density="1.97" laneDensity="1.97" occupancy="1.27" waitingTime="0.00" timeLoss="23.76" speed="11.47" speedRelative="0.83" departed="2" arrived="1" entered="32" left="33" laneChangedFrom="0" laneChangedTo="0"/>
        <edge id="-961323605#1" sampledSeconds="155.67" traveltime="4.43" overlapTraveltime="5.14" density="2.60" laneDensity="2.60" occupancy="1.51" waitingTime="0.00" timeLoss="64.00" speed="8.08" speedRelative="0.58" departed="3" arrived="0" entered="28" left="31" laneChangedFrom="0" laneChangedTo="0"/>
        <edge id="1054315844#0" sampledSeconds="190.83" traveltime="38.13" overlapTraveltime="38.72" density="0.17" laneDensity="0.09" occupancy="0.08" waitingTime="0.00" timeLoss="3.86" speed="16.58" speedRelative="0.99" departed="5" arrived="0" entered="0" left="5" laneChangedFrom="2" laneChangedTo="2"/>
        <edge id="1054315845#0" sampledSeconds="743.76" traveltime="43.44" overlapTraveltime="43.84" density="0.64" laneDensity="0.32" occupancy="0.20" waitingTime="0.00" timeLoss="49.34" speed="15.39" speedRelative="0.92" departed="0" arrived="17" entered="17" left="0" laneChangedFrom="11" laneChangedTo="11"/>
        <edge id="1217689481#0" sampledSeconds="18.80" traveltime="4.56" overlapTraveltime="5.18" density="0.19" laneDensity="0.19" occupancy="0.10" waitingTime="0.00" timeLoss="1.43" speed="11.87" speedRelative="0.85" departed="4" arrived="0" entered="0" left="4" laneChangedFrom="0" laneChangedTo="0"/>
        <edge id="1217689481#1" sampledSeconds="15.94" traveltime="5.02" overlapTraveltime="5.80" density="0.20" laneDensity="0.20" occupancy="0.14" waitingTime="0.00" timeLoss="5.62" speed="9.48" speedRelative="0.68" departed="0" arrived="3" entered="3" left="0" laneChangedFrom="0" laneChangedTo="0"/>
        <edge id="1225556789" sampledSeconds="494.33" traveltime="5.26" overlapTraveltime="6.21" density="5.44" laneDensity="5.44" occupancy="3.01" waitingTime="2.00" timeLoss="136.07" speed="9.40" speedRelative="0.68" departed="2" arrived="3" entered="78" left="77" laneChangedFrom="0" laneChangedTo="0"/>
        <edge id="1326404883" sampledSeconds="12.88" traveltime="2.67" overlapTraveltime="3.33" density="0.37" laneDensity="0.12" occupancy="0.05" waitingTime="3.00" timeLoss="7.03" speed="7.54" speedRelative="0.45" departed="0" arrived="1" entered="4" left="3" laneChangedFrom="0" laneChangedTo="0"/>
        <edge id="1392084244#0" sampledSeconds="99.51" traveltime="3.58" overlapTraveltime="4.06" density="1.54" laneDensity="0.77" occupancy="0.42" waitingTime="0.00" timeLoss="36.09" speed="10.75" speedRelative="0.64" departed="3" arrived="2" entered="22" left="23" laneChangedFrom="0" laneChangedTo="0"/>
        <edge id="1392084244#2" sampledSeconds="776.16" traveltime="14.16" overlapTraveltime="15.64" density="3.78" laneDensity="1.89" occupancy="1.24" waitingTime="162.00" timeLoss="403.41" speed="7.98" speedRelative="0.48" departed="1" arrived="1" entered="49" left="48" laneChangedFrom="7" laneChangedTo="7"/>
        <edge id="1392084253" sampledSeconds="147.33" traveltime="12.28" overlapTraveltime="12.73" density="0.42" laneDensity="0.21" occupancy="0.15" waitingTime="0.00" timeLoss="4.09" speed="16.27" speedRelative="0.98" departed="12" arrived="0" entered="0" left="12" laneChangedFrom="0" laneChangedTo="0"/>
        <edge id="158467737#1" sampledSeconds="30.16" traveltime="1.34" overlapTraveltime="1.95" density="1.47" laneDensity="1.47" occupancy="0.56" waitingTime="0.00" timeLoss="10.36" speed="9.17" speedRelative="0.66" departed="1" arrived="2" entered="15" left="14" laneChangedFrom="0" laneChangedTo="0"/>
        <edge id="249396544#0" sampledSeconds="521.09" traveltime="13.95" overlapTraveltime="14.90" density="1.92" laneDensity="1.92" occupancy="1.08" waitingTime="3.00" timeLoss="105.26" speed="10.83" speedRelative="0.78" departed="0" arrived="0" entered="35" left="35" laneChangedFrom="0" laneChangedTo="0"/>
        <edge id="249396544#2" sampledSeconds="85.19" traveltime="6.13" overlapTraveltime="6.58" density="0.63" laneDensity="0.63" occupancy="0.31" waitingTime="0.00" timeLoss="5.07" speed="12.64" speedRelative="0.91" departed="0" arrived="3" entered="13" left="10" laneChangedFrom="0" laneChangedTo="0"/>
        <edge id="249396544#3" sampledSeconds="33.74" traveltime="3.23" overlapTraveltime="3.83" density="0.52" laneDensity="0.52" occupancy="0.22" waitingTime="0.00" timeLoss="4.52" speed="10.90" speedRelative="0.78" departed="0" arrived="5" entered="9" left="4" laneChangedFrom="0" laneChangedTo="0"/>
        <edge id="27258652#0" sampledSeconds="95.03" traveltime="9.49" overlapTraveltime="10.94" density="0.31" laneDensity="0.31" occupancy="0.18" waitingTime="1.00" timeLoss="17.70" speed="16.87" speedRelative="0.76" departed="9" arrived="0" entered="0" left="9" laneChangedFrom="0" laneChangedTo="0"/>
        <edge id="27258652#1" sampledSeconds="108.96" traveltime="15.28" overlapTraveltime="15.70" density="0.27" laneDensity="0.27" occupancy="0.21" waitingTime="0.00" timeLoss="33.82" speed="15.24" speedRelative="0.69" departed="0" arrived="7" entered="7" left="0" laneChangedFrom="0" laneChangedTo="0"/>
        <edge id="27258666" sampledSeconds="48.06" traveltime="15.50" overlapTraveltime="16.36" density="0.19" laneDensity="0.19" occupancy="0.10" waitingTime="0.00" timeLoss="13.32" speed="9.34" speedRelative="0.67" departed="2" arrived="1" entered="1" left="2" laneChangedFrom="0" laneChangedTo="0"/>
        <edge id="27258667" sampledSeconds="86.37" traveltime="16.88" overlapTraveltime="17.52" density="0.29" laneDensity="0.29" occupancy="0.11" waitingTime="8.00" timeLoss="21.85" speed="10.00" speedRelative="0.72" departed="1" arrived="3" entered="4" left="2" laneChangedFrom="0" laneChangedTo="0"/>
        <edge id="27258697" sampledSeconds="0.00" departed="0" arrived="0" entered="0" left="0" laneChangedFrom="0" laneChangedTo="0"/>
        <edge id="273622079#0" sampledSeconds="25.64" traveltime="7.85" overlapTraveltime="8.55" density="0.15" laneDensity="0.15" occupancy="0.07" waitingTime="0.00" timeLoss="2.83" speed="11.76" speedRelative="0.85" departed="0" arrived="1" entered="3" left="2" laneChangedFrom="0" laneChangedTo="0"/>
        <edge id="273622079#1" sampledSeconds="0.00" departed="0" arrived="0" entered="0" left="0" laneChangedFrom="0" laneChangedTo="0"/>
        <edge id="29547797#0" sampledSeconds="8.71" traveltime="2.91" overlapTraveltime="3.21" density="0.12" laneDensity="0.12" occupancy="0.05" waitingTime="0.00" timeLoss="0.32" speed="13.99" speedRelative="1.01" departed="3" arrived="0" entered="0" left="3" laneChangedFrom="0" laneChangedTo="0"/>
        <edge id="29547797#1" sampledSeconds="92.79" traveltime="9.41" overlapTraveltime="10.42" density="0.58" laneDensity="0.58" occupancy="0.31" waitingTime="0.00" timeLoss="27.97" speed="9.37" speedRelative="0.67" departed="1" arrived="0" entered="8" left="9" laneChangedFrom="0" laneChangedTo="0"/>
        <edge id="29547816" sampledSeconds="54.84" traveltime="10.15" overlapTraveltime="11.08" density="0.31" laneDensity="0.31" occupancy="0.16" waitingTime="0.00" timeLoss="14.38" speed="9.57" speedRelative="0.69" departed="1" arrived="2" entered="4" left="3" laneChangedFrom="0" laneChangedTo="0"/>
        <edge id="29547818" sampledSeconds="25.50" traveltime="11.28" overlapTraveltime="12.79" density="0.13" laneDensity="0.13" occupancy="0.10" waitingTime="0.00" timeLoss="7.43" speed="9.32" speedRelative="0.67" departed="0" arrived="0" entered="2" left="2" laneChangedFrom="0" laneChangedTo="0"/>
        <edge id="29547826" sampledSeconds="31.66" traveltime="5.51" overlapTraveltime="6.56" density="0.46" laneDensity="0.46" occupancy="0.22" waitingTime="0.00" timeLoss="14.21" speed="6.90" speedRelative="0.50" departed="1" arrived="1" entered="4" left="4" laneChangedFrom="0" laneChangedTo="0"/>
        <edge id="338477202#0" sampledSeconds="574.57" traveltime="51.92" overlapTraveltime="52.76" density="0.48" laneDensity="0.48" occupancy="0.32" waitingTime="0.00" timeLoss="24.25" speed="13.04" speedRelative="0.94" departed="11" arrived="0" entered="0" left="11" laneChangedFrom="0" laneChangedTo="0"/>
        <edge id="338477202#1" sampledSeconds="56.34" traveltime="4.98" overlapTraveltime="5.80" density="0.66" laneDensity="0.66" occupancy="0.35" waitingTime="0.00" timeLoss="15.31" speed="9.39" speedRelative="0.68" departed="2" arrived="3" entered="8" left="7" laneChangedFrom="0" laneChangedTo="0"/>
        <edge id="338477202#2" sampledSeconds="34.09" traveltime="3.42" overlapTraveltime="4.11" density="0.60" laneDensity="0.60" occupancy="0.36" waitingTime="0.00" timeLoss="10.84" speed="9.67" speedRelative="0.70" departed="0" arrived="9" entered="9" left="0" laneChangedFrom="0" laneChangedTo="0"/>