<?xml version="1.0" encoding="UTF-8"?>

<!-- generated on 2025-10-02 19:17:45 by Eclipse SUMO GUI Version 1.24.0
<sumoConfiguration xmlns:xsi="http://www.w3.org/2001/XMLSchema-instance" xsi:noNamespaceSchemaLocation="http://sumo.dlr.de/xsd/sumoConfiguration.xsd">

    <input>
        <net-file value="osm.net.xml.gz"/>
        <route-files value="osm.bus.trips.xml,osm.motorcycle.trips.xml,osm.passenger.trips.xml,osm.truck.trips.xml"/>
        <additional-files value="osm.poly.xml.gz,output.add.xml"/>
    </input>

    <output>
        <emission-output value="Statesfield Area_emissions.xml"/>
        <summary-output value="Statesfield Area_summary.xml"/>
        <tripinfo-output value="tripinfos.xml"/>
        <edgedata-output value="Statesfield Area_edgedata.xml"/>
        <statistic-output value="stats.xml"/>
    </output>

    <processing>
        <ignore-route-errors value="true"/>
        <tls.actuated.jam-threshold value="30"/>
    </processing>

    <routing>
        <device.rerouting.adaptation-steps value="18"/>
        <device.rerouting.adaptation-interval value="10"/>
    </routing>

    <report>
        <verbose value="true"/>
        <duration-log.statistics value="true"/>
        <no-step-log value="true"/>
    </report>

    <gui_only>
        <gui-settings-file value="osm.view.xml"/>
    </gui_only>

</sumoConfiguration>
-->

<meandata xmlns:xsi="http://www.w3.org/2001/XMLSchema-instance" xsi:noNamespaceSchemaLocation="http://sumo.dlr.de/xsd/meandata_file.xsd">
    <interval begin="0.00" end="548.00" id="DEFAULT_EDGEDATA">
        <edge id="-1019458707" sampledSeconds="69.32" traveltime="17.13" overlapTraveltime="17.40" density="0.44" laneDensity="0.44" occupancy="0.21" waitingTime="0.00" timeLoss="10.76" speed="16.85" speedRelative="0.76" departed="0" arrived="4" entered="4" left="0" laneChangedFrom="0" laneChangedTo="0"/>
        <edge id="-573710407" sampledSeconds="74.59" traveltime="12.99" overlapTraveltime="13.65" density="0.76" laneDensity="0.25" occupancy="0.10" waitingTime="0.00" timeLoss="9.38" speed="13.45" speedRelative="0.81" departed="6" arrived="0" entered="0" left="5" laneChangedFrom="0" laneChangedTo="0"/>
        <edge id="-651079992#1" sampledSeconds="15.71" traveltime="15.42" overlapTraveltime="15.71" density="0.12" laneDensity="0.06" occupancy="0.03" waitingTime="0.00" timeLoss="1.87" speed="15.89" speedRelative="0.95" departed="0" arrived="1" entered="1" left="0" laneChangedFrom="0" laneChangedTo="0"/>
        <edge id="-938079508#0" sampledSeconds="58.43" traveltime="28.86" overlapTraveltime="29.32" density="0.55" laneDensity="0.55" occupancy="0.18" waitingTime="0.00" timeLoss="9.60" speed="6.78" speedRelative="0.81" departed="0" arrived="2" entered="2" left="0" laneChangedFrom="0" laneChangedTo="0"/>
        <edge id="-938079508#2" sampledSeconds="95.70" traveltime="18.54" overlapTraveltime="19.18" density="1.43" laneDensity="1.43" occupancy="0.54" waitingTime="0.00" timeLoss="15.19" speed="6.58" speedRelative="0.79" departed="0" arrived="1" entered="5" left="4" laneChangedFrom="0" laneChangedTo="0"/>
        <edge id="1019458707" sampledSeconds="15.86" traveltime="15.36" overlapTraveltime="16.14" density="0.10" laneDensity="0.10" occupancy="0.05" waitingTime="0.00" timeLoss="3.00" speed="18.05" speedRelative="0.81" departed="1" arrived="0" entered="0" left="1" laneChangedFrom="0" laneChangedTo="0"/>
        <edge id="651079976#0" sampledSeconds="6.00" traveltime="15.59" overlapTraveltime="15.73" density="0.04" laneDensity="0.01" occupancy="0.00" waitingTime="0.00" timeLoss="0.52" speed="15.69" speedRelative="0.94" departed="1" arrived="0" entered="0" left="0" laneChangedFrom="0" laneChangedTo="0"/>
        <edge id="938079508#0" sampledSeconds="52.56" traveltime="26.33" overlapTraveltime="26.98" density="0.50" laneDensity="0.50" occupancy="0.25" waitingTime="0.00" timeLoss="4.97" speed="7.31" speedRelative="0.88" departed="2" arrived="0" entered="0" left="2" laneChangedFrom="0" laneChangedTo="0"/>
        <edge id="938079508#1" sampledSeconds="16.24" traveltime="15.54" overlapTraveltime="16.24" density="0.24" laneDensity="0.24" occupancy="0.11" waitingTime="0.00" timeLoss="1.75" speed="7.96" speedRelative="0.96" departed="0" arrived="0" entered="1" left="1" laneChangedFrom="0" laneChangedTo="0"/>
    </interval>
</meandata>
