<?xml version="1.0" encoding="UTF-8"?>

<!-- generated on 2025-10-02 19:17:45 by Eclipse SUMO GUI Version 1.24.0
<sumoConfiguration xmlns:xsi="http://www.w3.org/2001/XMLSchema-instance" xsi:noNamespaceSchemaLocation="http://sumo.dlr.de/xsd/sumoConfiguration.xsd">

    <input>
        <net-file value="osm.net.xml.gz"/>
        <route-files value="osm.bus.trips.xml,osm.motorcycle.trips.xml,osm.passenger.trips.xml,osm.truck.trips.xml"/>
        <additional-files value="osm.poly.xml.gz,output.add.xml"/>
    </input>

    <output>
        <emission-output value="Statesfield Area_emissions.xml"/>
        <summary-output value="Statesfield Area_summary.xml"/>
        <tripinfo-output value="tripinfos.xml"/>
        <edgedata-output value="Statesfield Area_edgedata.xml"/>
        <statistic-output value="stats.xml"/>
    </output>

    <processing>
        <ignore-route-errors value="true"/>
        <tls.actuated.jam-threshold value="30"/>
    </processing>

    <routing>
        <device.rerouting.adaptation-steps value="18"/>
        <device.rerouting.adaptation-interval value="10"/>
    </routing>

    <report>
        <verbose value="true"/>
        <duration-log.statistics value="true"/>
        <no-step-log value="true"/>
    </report>

    <gui_only>
        <gui-settings-file value="osm.view.xml"/>
    </gui_only>

</sumoConfiguration>
-->

<emission-export xmlns:xsi="http://www.w3.org/2001/XMLSchema-instance" xsi:noNamespaceSchemaLocation="http://sumo.dlr.de/xsd/emission_file.xsd">
    <timestep time="0.00">
        <vehicle id="motorcycle0" eclass="HBEFA4/MC_4S_gt250cc_preEuro" CO2="2301.18" CO="148.91" HC="25.85" NOx="3.70" PMx="0.57" fuel="746.18" electricity="0.00" noise="67.10" route="!motorcycle0" type="motorcycle_motorcycle" waiting="0.00" lane="-573710407_0" pos="2.30" speed="17.67" angle="2.10" x="8.07" y="2.01"/>
        <vehicle id="veh0" eclass="HBEFA4/PC_petrol_Euro-4" CO2="3227.86" CO="34.62" HC="0.24" NOx="1.23" PMx="0.71" fuel="1046.44" electricity="0.00" noise="69.98" route="!veh0" type="veh_passenger" waiting="0.00" lane="1019458707_0" pos="5.10" speed="22.45" angle="187.29" x="90.29" y="427.97"/>
    </timestep>
    <timestep time="1.00">
        <vehicle id="motorcycle0" eclass="HBEFA4/MC_4S_gt250cc_preEuro" CO2="0.00" CO="0.00" HC="0.00" NOx="0.00" PMx="0.00" fuel="0.00" electricity="0.00" noise="64.30" route="!motorcycle0" type="motorcycle_motorcycle" waiting="0.00" lane="-573710407_0" pos="18.57" speed="16.27" angle="2.09" x="8.67" y="18.27"/>
        <vehicle id="veh0" eclass="HBEFA4/PC_petrol_Euro-4" CO2="1292.45" CO="1.50" HC="0.02" NOx="0.40" PMx="0.63" fuel="419.03" electricity="0.00" noise="69.26" route="!veh0" type="veh_passenger" waiting="0.00" lane="1019458707_0" pos="27.20" speed="22.10" angle="173.56" x="89.92" y="406.01"/>
    </timestep>
    <timestep time="2.00">
        <vehicle id="motorcycle0" eclass="HBEFA4/MC_4S_gt250cc_preEuro" CO2="0.00" CO="0.00" HC="0.00" NOx="0.00" PMx="0.00" fuel="0.00" electricity="0.00" noise="63.37" route="!motorcycle0" type="motorcycle_motorcycle" waiting="0.00" lane="-573710407_0" pos="33.55" speed="14.98" angle="2.09" x="9.22" y="33.24"/>
        <vehicle id="veh0" eclass="HBEFA4/PC_petrol_Euro-4" CO2="1087.80" CO="0.00" HC="0.00" NOx="0.32" PMx="0.61" fuel="352.68" electricity="0.00" noise="68.99" route="!veh0" type="veh_passenger" waiting="0.00" lane="1019458707_0" pos="48.91" speed="21.71" angle="108.36" x="107.84" y="396.05"/>
    </timestep>
    <timestep time="3.00">
        <vehicle id="motorcycle0" eclass="HBEFA4/MC_4S_gt250cc_preEuro" CO2="4394.11" CO="298.42" HC="47.96" NOx="10.12" PMx="0.76" fuel="1424.76" electricity="0.00" noise="73.95" route="!motorcycle0" type="motorcycle_motorcycle" waiting="0.00" lane="-573710407_0" pos="50.83" speed="17.28" angle="2.09" x="9.85" y="50.51"/>
        <vehicle id="veh0" eclass="HBEFA4/PC_petrol_Euro-4" CO2="3563.64" CO="39.38" HC="0.27" NOx="1.38" PMx="0.70" fuel="1155.29" electricity="0.00" noise="69.76" route="!veh0" type="veh_passenger" waiting="0.00" lane="1019458707_0" pos="70.71" speed="21.80" angle="126.93" x="127.30" y="386.84"/>
    </timestep>
    <timestep time="4.00">
        <vehicle id="motorcycle0" eclass="HBEFA4/MC_4S_gt250cc_preEuro" CO2="0.00" CO="0.00" HC="0.00" NOx="0.00" PMx="0.00" fuel="0.00" electricity="0.00" noise="64.70" route="!motorcycle0" type="motorcycle_motorcycle" waiting="0.00" lane="-573710407_0" pos="67.13" speed="16.30" angle="2.09" x="10.44" y="66.79"/>
        <vehicle id="veh0" eclass="HBEFA4/PC_petrol_Euro-4" CO2="6673.47" CO="93.49" HC="0.63" NOx="2.73" PMx="0.82" fuel="2163.43" electricity="0.00" noise="71.26" route="!veh0" type="veh_passenger" waiting="0.00" lane="1019458707_0" pos="93.16" speed="22.44" angle="185.66" x="128.01" y="365.03"/>
    </timestep>
    <timestep time="5.00">
        <vehicle id="motorcycle0" eclass="HBEFA4/MC_4S_gt250cc_preEuro" CO2="2879.46" CO="179.86" HC="32.45" NOx="5.43" PMx="0.63" fuel="933.67" electricity="0.00" noise="68.34" route="!motorcycle0" type="motorcycle_motorcycle" waiting="0.00" lane="-573710407_0" pos="84.13" speed="17.00" angle="2.09" x="11.07" y="83.78"/>
        <vehicle id="veh0" eclass="HBEFA4/PC_petrol_Euro-4" CO2="0.00" CO="0.00" HC="0.00" NOx="0.00" PMx="0.00" fuel="0.00" electricity="0.00" noise="68.12" route="!veh0" type="veh_passenger" waiting="0.00" lane="1019458707_0" pos="114.56" speed="21.40" angle="202.93" x="121.46" y="344.86"/>
    </timestep>
    <timestep time="6.00">
        <vehicle id="motorcycle0" eclass="HBEFA4/MC_4S_gt250cc_preEuro" CO2="0.00" CO="0.00" HC="0.00" NOx="0.00" PMx="0.00" fuel="0.00" electricity="0.00" noise="63.73" route="!motorcycle0" type="motorcycle_motorcycle" waiting="0.00" lane="-573710407_0" pos="99.70" speed="15.57" angle="2.09" x="11.63" y="99.34"/>
        <vehicle id="veh0" eclass="HBEFA4/PC_petrol_Euro-4" CO2="2236.84" CO="16.83" HC="0.12" NOx="0.81" PMx="0.64" fuel="725.17" electricity="0.00" noise="69.05" route="!veh0" type="veh_passenger" waiting="0.00" lane="1019458707_0" pos="135.81" speed="21.25" angle="164.90" x="120.95" y="324.30"/>
    </timestep>
    <timestep time="7.00">
        <vehicle id="motorcycle0" eclass="HBEFA4/MC_4S_gt250cc_preEuro" CO2="3509.42" CO="224.64" HC="38.94" NOx="7.34" PMx="0.68" fuel="1137.92" electricity="0.00" noise="70.45" route="!motorcycle0" type="motorcycle_motorcycle" waiting="0.00" lane="-573710407_0" pos="116.66" speed="16.96" angle="2.09" x="12.25" y="116.29"/>
        <vehicle id="veh0" eclass="HBEFA4/PC_petrol_Euro-4" CO2="3021.23" CO="29.66" HC="0.21" NOx="1.15" PMx="0.66" fuel="979.45" electricity="0.00" noise="69.30" route="!veh0" type="veh_passenger" waiting="0.00" lane="1019458707_0" pos="157.06" speed="21.25" angle="148.67" x="133.50" y="307.21"/>
    </timestep>
    <timestep time="8.00">
        <vehicle id="motorcycle0" eclass="HBEFA4/MC_4S_gt250cc_preEuro" CO2="0.00" CO="0.00" HC="0.00" NOx="0.00" PMx="0.00" fuel="0.00" electricity="0.00" noise="64.67" route="!motorcycle0" type="motorcycle_motorcycle" waiting="0.00" lane="-573710407_0" pos="132.74" speed="16.09" angle="2.09" x="12.84" y="132.37"/>
        <vehicle id="veh0" eclass="HBEFA4/PC_petrol_Euro-4" CO2="6936.08" CO="96.31" HC="0.65" NOx="2.83" PMx="0.81" fuel="2248.56" electricity="0.00" noise="71.21" route="!veh0" type="veh_passenger" waiting="0.00" lane="1019458707_0" pos="179.03" speed="21.98" angle="152.21" x="144.49" y="288.19"/>
    </timestep>
    <timestep time="9.00">
        <vehicle id="motorcycle0" eclass="HBEFA4/MC_4S_gt250cc_preEuro" CO2="0.00" CO="0.00" HC="0.00" NOx="0.00" PMx="0.00" fuel="0.00" electricity="0.00" noise="64.26" route="!motorcycle0" type="motorcycle_motorcycle" waiting="0.00" lane="-573710407_0" pos="148.08" speed="15.33" angle="2.09" x="13.40" y="147.69"/>
        <vehicle id="veh0" eclass="HBEFA4/PC_petrol_Euro-4" CO2="3310.87" CO="35.44" HC="0.25" NOx="1.27" PMx="0.70" fuel="1073.35" electricity="0.00" noise="69.78" route="!veh0" type="veh_passenger" waiting="0.00" lane="1019458707_0" pos="201.04" speed="22.01" angle="152.21" x="154.75" y="268.72"/>
    </timestep>
    <timestep time="10.00">
        <vehicle id="motorcycle0" eclass="HBEFA4/MC_4S_gt250cc_preEuro" CO2="3430.51" CO="212.25" HC="38.26" NOx="7.04" PMx="0.68" fuel="1112.34" electricity="0.00" noise="70.14" route="!motorcycle0" type="motorcycle_motorcycle" waiting="0.00" lane="-573710407_0" pos="164.76" speed="16.68" angle="2.09" x="14.01" y="164.36"/>
        <vehicle id="veh0" eclass="HBEFA4/PC_petrol_Euro-4" CO2="0.00" CO="0.00" HC="0.00" NOx="0.00" PMx="0.00" fuel="0.00" electricity="0.00" noise="68.68" route="!veh0" type="veh_passenger" waiting="0.00" lane="1019458707_0" pos="222.53" speed="21.49" angle="162.60" x="162.80" y="248.89"/>
    </timestep>
    <timestep time="11.00">
        <vehicle id="motorcycle0" eclass="HBEFA4/MC_4S_gt250cc_preEuro" CO2="0.00" CO="0.00" HC="0.00" NOx="0.00" PMx="0.00" fuel="0.00" electricity="0.00" noise="61.80" route="!motorcycle0" type="motorcycle_motorcycle" waiting="0.00" lane="-573710407_0" pos="178.82" speed="14.06" angle="2.09" x="14.53" y="178.41"/>
        <vehicle id="veh0" eclass="HBEFA4/PC_petrol_Euro-4" CO2="0.00" CO="0.00" HC="0.00" NOx="0.00" PMx="0.00" fuel="0.00" electricity="0.00" noise="67.52" route="!veh0" type="veh_passenger" waiting="0.00" lane="1019458707_0" pos="242.97" speed="20.45" angle="181.04" x="163.95" y="228.61"/>
    </timestep>
    <timestep time="12.00">
        <vehicle id="motorcycle0" eclass="HBEFA4/MC_4S_gt250cc_preEuro" CO2="0.00" CO="0.00" HC="0.00" NOx="0.00" PMx="0.00" fuel="0.00" electricity="0.00" noise="52.26" route="!motorcycle0" type="motorcycle_motorcycle" waiting="0.00" lane=":289688372_7_0" pos="6.25" speed="6.94" angle="49.41" x="17.44" y="184.30"/>
        <vehicle id="veh0" eclass="HBEFA4/PC_petrol_Euro-4" CO2="0.00" CO="0.00" HC="0.00" NOx="0.00" PMx="0.00" fuel="0.00" electricity="0.00" noise="64.48" route="!veh0" type="veh_passenger" waiting="0.00" lane="1019458707_0" pos="260.30" speed="17.33" angle="192.31" x="160.26" y="211.68"/>
    </timestep>
    <timestep time="13.00">
        <vehicle id="motorcycle0" eclass="HBEFA4/MC_4S_gt250cc_preEuro" CO2="1677.35" CO="11.91" HC="25.14" NOx="1.23" PMx="0.54" fuel="543.91" electricity="0.00" noise="60.39" route="!motorcycle0" type="motorcycle_motorcycle" waiting="0.00" lane="-938079508#2_0" pos="4.36" speed="7.12" angle="82.56" x="24.37" y="185.70"/>
        <vehicle id="veh0" eclass="HBEFA4/PC_petrol_Euro-4" CO2="0.00" CO="0.00" HC="0.00" NOx="0.00" PMx="0.00" fuel="0.00" electricity="0.00" noise="60.31" route="!veh0" type="veh_passenger" waiting="0.00" lane="1019458707_0" pos="273.13" speed="12.83" angle="214.16" x="153.60" y="200.84"/>
    </timestep>
    <timestep time="14.00">
        <vehicle id="motorcycle0" eclass="HBEFA4/MC_4S_gt250cc_preEuro" CO2="0.00" CO="0.00" HC="0.00" NOx="0.00" PMx="0.00" fuel="0.00" electricity="0.00" noise="56.70" route="!motorcycle0" type="motorcycle_motorcycle" waiting="0.00" lane="-938079508#2_0" pos="10.75" speed="6.39" angle="82.56" x="30.70" y="186.53"/>
        <vehicle id="veh0" eclass="HBEFA4/PC_petrol_Euro-4" CO2="0.00" CO="0.00" HC="0.00" NOx="0.00" PMx="0.00" fuel="0.00" electricity="0.00" noise="55.09" route="!veh0" type="veh_passenger" waiting="0.00" lane="1019458707_0" pos="281.69" speed="8.56" angle="214.16" x="148.79" y="193.75"/>
    </timestep>
    <timestep time="15.00">
        <vehicle id="motorcycle0" eclass="HBEFA4/MC_4S_gt250cc_preEuro" CO2="0.00" CO="0.00" HC="0.00" NOx="0.00" PMx="0.00" fuel="0.00" electricity="0.00" noise="57.83" route="!motorcycle0" type="motorcycle_motorcycle" waiting="0.00" lane="-938079508#2_0" pos="16.81" speed="6.07" angle="82.56" x="36.72" y="187.32"/>
        <vehicle id="veh0" eclass="HBEFA4/PC_petrol_Euro-4" CO2="0.00" CO="0.00" HC="0.00" NOx="0.00" PMx="0.00" fuel="0.00" electricity="0.00" noise="46.31" route="!veh0" type="veh_passenger" waiting="0.00" lane="1019458707_0" pos="285.75" speed="4.06" angle="215.21" x="146.44" y="190.45"/>
    </timestep>
    <timestep time="16.00">
        <vehicle id="motorcycle0" eclass="HBEFA4/MC_4S_gt250cc_preEuro" CO2="2701.81" CO="31.05" HC="30.68" NOx="2.74" PMx="0.65" fuel="876.08" electricity="0.00" noise="65.72" route="!motorcycle0" type="motorcycle_motorcycle" waiting="0.00" lane="-938079508#2_0" pos="24.35" speed="7.54" angle="82.56" x="44.20" y="188.29"/>
        <vehicle id="veh0" eclass="HBEFA4/PC_petrol_Euro-4" CO2="5762.07" CO="19.44" HC="0.13" NOx="1.58" PMx="0.21" fuel="1867.95" electricity="0.00" noise="69.24" route="!veh0" type="veh_passenger" waiting="0.00" lane=":5208885902_1_0" pos="5.93" speed="6.48" angle="215.92" x="142.55" y="185.29"/>
    </timestep>
    <timestep time="17.00">
        <vehicle id="motorcycle0" eclass="HBEFA4/MC_4S_gt250cc_preEuro" CO2="0.00" CO="0.00" HC="0.00" NOx="0.00" PMx="0.00" fuel="0.00" electricity="0.00" noise="55.65" route="!motorcycle0" type="motorcycle_motorcycle" waiting="0.00" lane="-938079508#2_0" pos="30.79" speed="6.44" angle="81.80" x="50.58" y="189.18"/>
        <vehicle id="veh0" eclass="HBEFA4/PC_petrol_Euro-4" CO2="4206.15" CO="15.81" HC="0.10" NOx="1.29" PMx="0.24" fuel="1363.57" electricity="0.00" noise="65.10" route="!veh0" type="veh_passenger" waiting="0.00" lane="-938079508#0_0" pos="1.84" speed="7.78" angle="194.57" x="140.23" y="177.89"/>
    </timestep>
    <timestep time="18.00">
        <vehicle id="motorcycle0" eclass="HBEFA4/MC_4S_gt250cc_preEuro" CO2="1808.85" CO="12.50" HC="25.77" NOx="1.36" PMx="0.55" fuel="586.54" electricity="0.00" noise="60.89" route="!motorcycle0" type="motorcycle_motorcycle" waiting="0.00" lane="-938079508#2_0" pos="37.61" speed="6.81" angle="81.80" x="57.32" y="190.15"/>
        <vehicle id="veh0" eclass="HBEFA4/PC_petrol_Euro-4" CO2="2146.28" CO="4.17" HC="0.03" NOx="0.76" PMx="0.22" fuel="695.80" electricity="0.00" noise="61.10" route="!veh0" type="veh_passenger" waiting="0.00" lane="-938079508#0_0" pos="9.84" speed="8.00" angle="193.37" x="138.38" y="170.11"/>
    </timestep>
    <timestep time="19.00">
        <vehicle id="motorcycle0" eclass="HBEFA4/MC_4S_gt250cc_preEuro" CO2="1552.70" CO="9.06" HC="24.51" NOx="1.03" PMx="0.52" fuel="503.49" electricity="0.00" noise="59.67" route="!motorcycle0" type="motorcycle_motorcycle" waiting="0.00" lane="-938079508#2_0" pos="44.45" speed="6.85" angle="81.80" x="64.10" y="191.12"/>
        <vehicle id="veh0" eclass="HBEFA4/PC_petrol_Euro-4" CO2="2240.85" CO="4.95" HC="0.03" NOx="0.78" PMx="0.23" fuel="726.46" electricity="0.00" noise="61.40" route="!veh0" type="veh_passenger" waiting="0.00" lane="-938079508#0_0" pos="18.10" speed="8.26" angle="193.37" x="136.48" y="162.07"/>
    </timestep>
    <timestep time="20.00">
        <vehicle id="motorcycle0" eclass="HBEFA4/MC_4S_gt250cc_preEuro" CO2="2591.14" CO="34.39" HC="30.42" NOx="2.76" PMx="0.64" fuel="840.19" electricity="0.00" noise="65.27" route="!motorcycle0" type="motorcycle_motorcycle" waiting="0.00" lane="-938079508#2_0" pos="52.59" speed="8.14" angle="81.80" x="72.15" y="192.28"/>
        <vehicle id="veh0" eclass="HBEFA4/PC_petrol_Euro-4" CO2="0.00" CO="0.00" HC="0.00" NOx="0.00" PMx="0.00" fuel="0.00" electricity="0.00" noise="59.46" route="!veh0" type="veh_passenger" waiting="0.00" lane="-938079508#0_0" pos="26.09" speed="7.99" angle="193.37" x="134.63" y="154.30"/>
    </timestep>
    <timestep time="21.00">
        <vehicle id="motorcycle0" eclass="HBEFA4/MC_4S_gt250cc_preEuro" CO2="0.00" CO="0.00" HC="0.00" NOx="0.00" PMx="0.00" fuel="0.00" electricity="0.00" noise="60.00" route="!motorcycle0" type="motorcycle_motorcycle" waiting="0.00" lane="-938079508#2_0" pos="60.62" speed="8.03" angle="81.80" x="80.10" y="193.43"/>
        <vehicle id="veh0" eclass="HBEFA4/PC_petrol_Euro-4" CO2="0.00" CO="0.00" HC="0.00" NOx="0.00" PMx="0.00" fuel="0.00" electricity="0.00" noise="57.28" route="!veh0" type="veh_passenger" waiting="0.00" lane="-938079508#0_0" pos="33.30" speed="7.21" angle="193.37" x="132.96" y="147.28"/>
    </timestep>
    <timestep time="22.00">
        <vehicle id="motorcycle0" eclass="HBEFA4/MC_4S_gt250cc_preEuro" CO2="0.00" CO="0.00" HC="0.00" NOx="0.00" PMx="0.00" fuel="0.00" electricity="0.00" noise="59.25" route="!motorcycle0" type="motorcycle_motorcycle" waiting="0.00" lane="-938079508#2_0" pos="68.38" speed="7.75" angle="81.80" x="87.78" y="194.54"/>
        <vehicle id="veh0" eclass="HBEFA4/PC_petrol_Euro-4" CO2="1677.07" CO="1.14" HC="0.01" NOx="0.63" PMx="0.20" fuel="543.70" electricity="0.00" noise="59.78" route="!veh0" type="veh_passenger" waiting="0.00" lane="-938079508#0_0" pos="40.51" speed="7.21" angle="193.37" x="131.29" y="140.27"/>
    </timestep>
    <timestep time="23.00">
        <vehicle id="motorcycle0" eclass="HBEFA4/MC_4S_gt250cc_preEuro" CO2="0.00" CO="0.00" HC="0.00" NOx="0.00" PMx="0.00" fuel="0.00" electricity="0.00" noise="58.24" route="!motorcycle0" type="motorcycle_motorcycle" waiting="0.00" lane="-938079508#2_0" pos="75.65" speed="7.28" angle="81.80" x="94.98" y="195.57"/>
        <vehicle id="veh0" eclass="HBEFA4/PC_petrol_Euro-4" CO2="2969.14" CO="8.85" HC="0.06" NOx="0.97" PMx="0.23" fuel="962.56" electricity="0.00" noise="62.59" route="!veh0" type="veh_passenger" waiting="0.00" lane="-938079508#0_0" pos="48.37" speed="7.86" angle="193.37" x="129.48" y="132.62"/>
    </timestep>
    <timestep time="24.00">
        <vehicle id="motorcycle0" eclass="HBEFA4/MC_4S_gt250cc_preEuro" CO2="2269.85" CO="28.26" HC="28.57" NOx="2.26" PMx="0.60" fuel="736.02" electricity="0.00" noise="63.65" route="!motorcycle0" type="motorcycle_motorcycle" waiting="0.00" lane="-938079508#2_0" pos="83.81" speed="8.16" angle="81.80" x="103.05" y="196.74"/>
        <vehicle id="veh0" eclass="HBEFA4/PC_petrol_Euro-4" CO2="2004.45" CO="3.34" HC="0.02" NOx="0.72" PMx="0.22" fuel="649.82" electricity="0.00" noise="60.86" route="!veh0" type="veh_passenger" waiting="0.00" lane="-938079508#0_0" pos="56.38" speed="8.01" angle="193.37" x="127.62" y="124.82"/>
    </timestep>
    <timestep time="25.00">
        <vehicle id="motorcycle0" eclass="HBEFA4/MC_4S_gt250cc_preEuro" CO2="1841.74" CO="21.71" HC="26.10" NOx="1.65" PMx="0.55" fuel="597.21" electricity="0.00" noise="61.75" route="!motorcycle0" type="motorcycle_motorcycle" waiting="0.00" lane="-938079508#2_0" pos="92.29" speed="8.48" angle="81.80" x="111.44" y="197.95"/>
        <vehicle id="veh0" eclass="HBEFA4/PC_petrol_Euro-4" CO2="1519.68" CO="0.44" HC="0.00" NOx="0.59" PMx="0.21" fuel="492.67" electricity="0.00" noise="59.96" route="!veh0" type="veh_passenger" waiting="0.00" lane="-938079508#0_0" pos="64.30" speed="7.92" angle="193.37" x="125.79" y="117.12"/>
    </timestep>
    <timestep time="26.00">
        <vehicle id="motorcycle0" eclass="HBEFA4/MC_4S_gt250cc_preEuro" CO2="1630.54" CO="17.48" HC="24.82" NOx="1.32" PMx="0.53" fuel="528.73" electricity="0.00" noise="60.86" route="!motorcycle0" type="motorcycle_motorcycle" waiting="0.00" lane="-938079508#2_0" pos="100.81" speed="8.52" angle="97.43" x="119.89" y="197.44"/>
        <vehicle id="veh0" eclass="HBEFA4/PC_petrol_Euro-4" CO2="2296.54" CO="5.25" HC="0.04" NOx="0.80" PMx="0.23" fuel="744.51" electricity="0.00" noise="61.47" route="!veh0" type="veh_passenger" waiting="0.00" lane="-938079508#0_0" pos="72.51" speed="8.21" angle="193.37" x="123.90" y="109.14"/>
    </timestep>
    <timestep time="27.00">
        <vehicle id="motorcycle0" eclass="HBEFA4/MC_4S_gt250cc_preEuro" CO2="0.00" CO="0.00" HC="0.00" NOx="0.00" PMx="0.00" fuel="0.00" electricity="0.00" noise="58.72" route="!motorcycle0" type="motorcycle_motorcycle" waiting="0.00" lane="-938079508#2_0" pos="108.81" speed="8.00" angle="115.28" x="127.25" y="194.39"/>
        <vehicle id="veh0" eclass="HBEFA4/PC_petrol_Euro-4" CO2="0.00" CO="0.00" HC="0.00" NOx="0.00" PMx="0.00" fuel="0.00" electricity="0.00" noise="57.37" route="!veh0" type="veh_passenger" waiting="0.00" lane="-938079508#0_0" pos="79.91" speed="7.40" angle="193.37" x="122.19" y="101.94"/>
    </timestep>
    <timestep time="28.00">
        <vehicle id="motorcycle0" eclass="HBEFA4/MC_4S_gt250cc_preEuro" CO2="0.00" CO="0.00" HC="0.00" NOx="0.00" PMx="0.00" fuel="0.00" electricity="0.00" noise="56.36" route="!motorcycle0" type="motorcycle_motorcycle" waiting="0.00" lane="-938079508#2_0" pos="115.78" speed="6.97" angle="128.63" x="132.69" y="190.04"/>
        <vehicle id="veh0" eclass="HBEFA4/PC_petrol_Euro-4" CO2="2773.62" CO="7.82" HC="0.05" NOx="0.92" PMx="0.23" fuel="899.17" electricity="0.00" noise="62.24" route="!veh0" type="veh_passenger" waiting="0.00" lane="-938079508#0_0" pos="87.85" speed="7.94" angle="193.37" x="120.35" y="94.21"/>
    </timestep>
    <timestep time="29.00">
        <vehicle id="veh0" eclass="HBEFA4/PC_petrol_Euro-4" CO2="0.00" CO="0.00" HC="0.00" NOx="0.00" PMx="0.00" fuel="0.00" electricity="0.00" noise="58.48" route="!veh0" type="veh_passenger" waiting="0.00" lane="-938079508#0_0" pos="95.34" speed="7.49" angle="193.37" x="118.62" y="86.92"/>
    </timestep>
    <timestep time="30.00">
        <vehicle id="veh0" eclass="HBEFA4/PC_petrol_Euro-4" CO2="2160.18" CO="4.05" HC="0.03" NOx="0.76" PMx="0.22" fuel="700.31" electricity="0.00" noise="60.99" route="!veh0" type="veh_passenger" waiting="0.00" lane="-938079508#0_0" pos="103.07" speed="7.73" angle="193.37" x="116.83" y="79.40"/>
    </timestep>
    <timestep time="31.00">
        <vehicle id="veh0" eclass="HBEFA4/PC_petrol_Euro-4" CO2="0.00" CO="0.00" HC="0.00" NOx="0.00" PMx="0.00" fuel="0.00" electricity="0.00" noise="58.13" route="!veh0" type="veh_passenger" waiting="0.00" lane="-938079508#0_0" pos="110.29" speed="7.23" angle="193.37" x="115.16" y="72.37"/>
    </timestep>
    <timestep time="32.00">
        <vehicle id="veh0" eclass="HBEFA4/PC_petrol_Euro-4" CO2="1988.44" CO="2.87" HC="0.02" NOx="0.71" PMx="0.20" fuel="644.63" electricity="0.00" noise="60.49" route="!veh0" type="veh_passenger" waiting="0.00" lane="-938079508#0_0" pos="117.68" speed="7.39" angle="193.37" x="113.45" y="65.18"/>
    </timestep>
    <timestep time="33.00">
        <vehicle id="veh0" eclass="HBEFA4/PC_petrol_Euro-4" CO2="2768.80" CO="7.78" HC="0.05" NOx="0.92" PMx="0.23" fuel="897.61" electricity="0.00" noise="62.23" route="!veh0" type="veh_passenger" waiting="0.00" lane="-938079508#0_0" pos="125.62" speed="7.93" angle="180.44" x="113.35" y="57.25"/>
    </timestep>
    <timestep time="34.00">
        <vehicle id="veh0" eclass="HBEFA4/PC_petrol_Euro-4" CO2="0.00" CO="0.00" HC="0.00" NOx="0.00" PMx="0.00" fuel="0.00" electricity="0.00" noise="57.70" route="!veh0" type="veh_passenger" waiting="0.00" lane="-938079508#0_0" pos="132.90" speed="7.28" angle="166.06" x="114.78" y="50.15"/>
    </timestep>
    <timestep time="35.00">
        <vehicle id="veh0" eclass="HBEFA4/PC_petrol_Euro-4" CO2="3659.52" CO="13.68" HC="0.09" NOx="1.16" PMx="0.25" fuel="1186.36" electricity="0.00" noise="64.01" route="!veh0" type="veh_passenger" waiting="0.00" lane="-938079508#0_0" pos="141.14" speed="8.24" angle="152.19" x="117.95" y="42.60"/>
    </timestep>
    <timestep time="36.00">
        <vehicle id="veh0" eclass="HBEFA4/PC_petrol_Euro-4" CO2="0.00" CO="0.00" HC="0.00" NOx="0.00" PMx="0.00" fuel="0.00" electricity="0.00" noise="57.98" route="!veh0" type="veh_passenger" waiting="0.00" lane="-938079508#0_0" pos="148.73" speed="7.59" angle="141.10" x="122.28" y="36.43"/>
    </timestep>
    <timestep time="37.00">
        <vehicle id="veh0" eclass="HBEFA4/PC_petrol_Euro-4" CO2="3025.66" CO="9.77" HC="0.06" NOx="0.99" PMx="0.24" fuel="980.88" electricity="0.00" noise="62.81" route="!veh0" type="veh_passenger" waiting="0.00" lane="-938079508#0_0" pos="156.96" speed="8.24" angle="138.84" x="127.70" y="30.23"/>
    </timestep>
    <timestep time="38.00">
        <vehicle id="veh0" eclass="HBEFA4/PC_petrol_Euro-4" CO2="0.00" CO="0.00" HC="0.00" NOx="0.00" PMx="0.00" fuel="0.00" electricity="0.00" noise="56.32" route="!veh0" type="veh_passenger" waiting="0.00" lane="-938079508#0_0" pos="164.09" speed="7.13" angle="138.84" x="132.40" y="24.86"/>
    </timestep>
    <timestep time="39.00">
        <vehicle id="veh0" eclass="HBEFA4/PC_petrol_Euro-4" CO2="2392.58" CO="5.15" HC="0.03" NOx="0.81" PMx="0.21" fuel="775.65" electricity="0.00" noise="61.33" route="!veh0" type="veh_passenger" waiting="0.00" lane="-938079508#0_0" pos="171.60" speed="7.50" angle="138.84" x="137.34" y="19.21"/>
    </timestep>
    <timestep time="40.00">
        <vehicle id="veh0" eclass="HBEFA4/PC_petrol_Euro-4" CO2="1408.93" CO="0.00" HC="0.00" NOx="0.56" PMx="0.20" fuel="456.77" electricity="0.00" noise="59.38" route="!veh0" type="veh_passenger" waiting="0.00" lane="-938079508#0_0" pos="178.95" speed="7.36" angle="138.84" x="142.18" y="13.68"/>
    </timestep>
    <timestep time="41.00">
        <vehicle id="veh0" eclass="HBEFA4/PC_petrol_Euro-4" CO2="2076.65" CO="3.46" HC="0.02" NOx="0.73" PMx="0.21" fuel="673.23" electricity="0.00" noise="60.75" route="!veh0" type="veh_passenger" waiting="0.00" lane="-938079508#0_0" pos="186.51" speed="7.56" angle="138.84" x="147.15" y="7.98"/>
    </timestep>
    <timestep time="42.00">
        <vehicle id="veh0" eclass="HBEFA4/PC_petrol_Euro-4" CO2="3362.42" CO="12.08" HC="0.08" NOx="1.09" PMx="0.25" fuel="1090.05" electricity="0.00" noise="63.47" route="!veh0" type="veh_passenger" waiting="0.00" lane="-938079508#0_0" pos="194.88" speed="8.36" angle="138.84" x="152.66" y="1.69"/>
    </timestep>
    <timestep time="43.00"/>
    <timestep time="44.00"/>
    <timestep time="45.00"/>
    <timestep time="46.00"/>
    <timestep time="47.00"/>
    <timestep time="48.00"/>
    <timestep time="49.00"/>
    <timestep time="50.00"/>
    <timestep time="51.00"/>
    <timestep time="52.00"/>
    <timestep time="53.00"/>
    <timestep time="54.00"/>
    <timestep time="55.00"/>
    <timestep time="56.00"/>
    <timestep time="57.00"/>
    <timestep time="58.00"/>
    <timestep time="59.00"/>
    <timestep time="60.00"/>
    <timestep time="61.00"/>
    <timestep time="62.00"/>
    <timestep time="63.00"/>
    <timestep time="64.00"/>
    <timestep time="65.00"/>
    <timestep time="66.00"/>
    <timestep time="67.00"/>
    <timestep time="68.00"/>
    <timestep time="69.00"/>
    <timestep time="70.00"/>
    <timestep time="71.00"/>
    <timestep time="72.00"/>
    <timestep time="73.00"/>
    <timestep time="74.00"/>
    <timestep time="75.00"/>
    <timestep time="76.00"/>
    <timestep time="77.00"/>
    <timestep time="78.00"/>
    <timestep time="79.00"/>
    <timestep time="80.00"/>
    <timestep time="81.00"/>
    <timestep time="82.00"/>
    <timestep time="83.00"/>
    <timestep time="84.00"/>
    <timestep time="85.00"/>
    <timestep time="86.00"/>
    <timestep time="87.00"/>
    <timestep time="88.00"/>
    <timestep time="89.00"/>
    <timestep time="90.00"/>
    <timestep time="91.00">
        <vehicle id="veh1" eclass="HBEFA4/PC_petrol_Euro-4" CO2="1749.56" CO="2.24" HC="0.02" NOx="0.65" PMx="0.25" fuel="567.20" electricity="0.00" noise="61.06" route="!veh1!var#1" type="veh_passenger" waiting="0.00" lane="938079508#0_0" pos="5.10" speed="9.02" angle="318.85" x="151.93" y="7.36"/>
    </timestep>
    <timestep time="92.00">
        <vehicle id="veh1" eclass="HBEFA4/PC_petrol_Euro-4" CO2="0.00" CO="0.00" HC="0.00" NOx="0.00" PMx="0.00" fuel="0.00" electricity="0.00" noise="58.77" route="!veh1!var#1" type="veh_passenger" waiting="0.00" lane="938079508#0_0" pos="13.50" speed="8.40" angle="318.85" x="146.41" y="13.69"/>
    </timestep>
    <timestep time="93.00">
        <vehicle id="veh1" eclass="HBEFA4/PC_petrol_Euro-4" CO2="2204.36" CO="5.04" HC="0.03" NOx="0.78" PMx="0.24" fuel="714.63" electricity="0.00" noise="61.53" route="!veh1!var#1" type="veh_passenger" waiting="0.00" lane="938079508#0_0" pos="22.13" speed="8.63" angle="318.85" x="140.73" y="20.18"/>
    </timestep>
    <timestep time="94.00">
        <vehicle id="veh1" eclass="HBEFA4/PC_petrol_Euro-4" CO2="0.00" CO="0.00" HC="0.00" NOx="0.00" PMx="0.00" fuel="0.00" electricity="0.00" noise="57.51" route="!veh1!var#1" type="veh_passenger" waiting="0.00" lane="938079508#0_0" pos="29.88" speed="7.75" angle="318.85" x="135.63" y="26.02"/>
    </timestep>
    <timestep time="95.00">
        <vehicle id="veh1" eclass="HBEFA4/PC_petrol_Euro-4" CO2="2680.80" CO="7.63" HC="0.05" NOx="0.90" PMx="0.24" fuel="869.08" electricity="0.00" noise="62.17" route="!veh1!var#1" type="veh_passenger" waiting="0.00" lane="938079508#0_0" pos="38.11" speed="8.23" angle="318.85" x="130.22" y="32.22"/>
    </timestep>
    <timestep time="96.00">
        <vehicle id="veh1" eclass="HBEFA4/PC_petrol_Euro-4" CO2="0.00" CO="0.00" HC="0.00" NOx="0.00" PMx="0.00" fuel="0.00" electricity="0.00" noise="59.04" route="!veh1!var#1" type="veh_passenger" waiting="0.00" lane="938079508#0_0" pos="45.97" speed="7.86" angle="318.85" x="125.05" y="38.13"/>
    </timestep>
    <timestep time="97.00">
        <vehicle id="veh1" eclass="HBEFA4/PC_petrol_Euro-4" CO2="3239.23" CO="11.70" HC="0.08" NOx="1.06" PMx="0.25" fuel="1050.12" electricity="0.00" noise="63.29" route="!veh1!var#1" type="veh_passenger" waiting="0.00" lane="938079508#0_0" pos="54.55" speed="8.58" angle="330.27" x="120.22" y="45.16"/>
    </timestep>
    <timestep time="98.00">
        <vehicle id="veh1" eclass="HBEFA4/PC_petrol_Euro-4" CO2="2390.88" CO="6.51" HC="0.04" NOx="0.83" PMx="0.25" fuel="775.10" electricity="0.00" noise="61.97" route="!veh1!var#1" type="veh_passenger" waiting="0.00" lane="938079508#0_0" pos="63.43" speed="8.89" angle="346.00" x="117.26" y="53.47"/>
    </timestep>
    <timestep time="99.00">
        <vehicle id="veh1" eclass="HBEFA4/PC_petrol_Euro-4" CO2="0.00" CO="0.00" HC="0.00" NOx="0.00" PMx="0.00" fuel="0.00" electricity="0.00" noise="57.47" route="!veh1!var#1" type="veh_passenger" waiting="0.00" lane="938079508#0_0" pos="71.36" speed="7.93" angle="0.40" x="116.58" y="61.31"/>
    </timestep>