<?xml version="1.0" encoding="UTF-8"?>

<!-- generated on 2025-09-17 21:44:09 by Eclipse SUMO GUI Version 1.24.0
<sumoConfiguration xmlns:xsi="http://www.w3.org/2001/XMLSchema-instance" xsi:noNamespaceSchemaLocation="http://sumo.dlr.de/xsd/sumoConfiguration.xsd">

    <input>
        <net-file value="osm.net.xml.gz"/>
        <route-files value="osm.bus.trips.xml,osm.motorcycle.trips.xml,osm.passenger.trips.xml,osm.truck.trips.xml"/>
        <additional-files value="osm.poly.xml.gz,output.add.xml"/>
    </input>

    <output>
        <tripinfo-output value="tripinfos.xml"/>
        <statistic-output value="stats.xml"/>
    </output>

    <processing>
        <ignore-route-errors value="true"/>
        <tls.actuated.jam-threshold value="30"/>
    </processing>

    <routing>
        <device.rerouting.adaptation-steps value="18"/>
        <device.rerouting.adaptation-interval value="10"/>
    </routing>

    <report>
        <verbose value="true"/>
        <duration-log.statistics value="true"/>
        <no-step-log value="true"/>
    </report>

    <gui_only>
        <gui-settings-file value="osm.view.xml"/>
    </gui_only>

</sumoConfiguration>
-->

<tripinfos xmlns:xsi="http://www.w3.org/2001/XMLSchema-instance" xsi:noNamespaceSchemaLocation="http://sumo.dlr.de/xsd/tripinfo_file.xsd">
    <tripinfo id="veh0" depart="0.00" departLane="130049554#0_0" departPos="5.10" departSpeed="16.84" departDelay="0.00" arrival="27.00" arrivalLane="130048903#0_0" arrivalPos="54.11" arrivalSpeed="16.54" duration="27.00" routeLength="303.74" waitingTime="2.00" waitingCount="1" stopTime="0.00" timeLoss="8.70" rerouteNo="0" devices="tripinfo_veh0 routing_veh0" vType="veh_passenger" speedFactor="1.01" vaporized=""/>
    <tripinfo id="bus0" depart="0.00" departLane="183710979#0_0" departPos="12.10" departSpeed="11.11" departDelay="0.00" arrival="67.00" arrivalLane="665787533_0" arrivalPos="353.21" arrivalSpeed="10.77" duration="67.00" routeLength="724.01" waitingTime="0.00" waitingCount="0" stopTime="0.00" timeLoss="1.55" rerouteNo="0" devices="tripinfo_bus0 routing_bus0" vType="bus_bus" speedFactor="1.00" vaporized=""/>
    <tripinfo id="motorcycle0" depart="0.00" departLane="-130048902#1_0" departPos="2.30" departSpeed="11.78" departDelay="0.00" arrival="73.00" arrivalLane="665787533_0" arrivalPos="353.21" arrivalSpeed="9.92" duration="73.00" routeLength="708.90" waitingTime="0.00" waitingCount="0" stopTime="0.00" timeLoss="11.66" rerouteNo="0" devices="tripinfo_motorcycle0 routing_motorcycle0" vType="motorcycle_motorcycle" speedFactor="1.06" vaporized=""/>
    <tripinfo id="truck0" depart="1.00" departLane="-130048902#1_0" departPos="7.20" departSpeed="0.16" departDelay="1.00" arrival="91.00" arrivalLane="-665787530_0" arrivalPos="350.72" arrivalSpeed="11.11" duration="90.00" routeLength="729.26" waitingTime="10.00" waitingCount="1" stopTime="0.00" timeLoss="24.78" rerouteNo="0" devices="tripinfo_truck0 routing_truck0" vType="truck_truck" speedFactor="1.02" vaporized=""/>
    <tripinfo id="veh1" depart="69.00" departLane="665787524_0" departPos="5.10" departSpeed="18.05" departDelay="0.60" arrival="115.00" arrivalLane="-665787530_0" arrivalPos="350.72" arrivalSpeed="11.71" duration="46.00" routeLength="573.15" waitingTime="0.00" waitingCount="0" stopTime="0.00" timeLoss="2.78" rerouteNo="0" devices="tripinfo_veh1 routing_veh1" vType="veh_passenger" speedFactor="1.08" vaporized=""/>
    <tripinfo id="veh2.1" depart="137.00" departLane="665787524_1" departPos="5.10" departSpeed="17.25" departDelay="0.20" arrival="178.00" arrivalLane="795097767#0_1" arrivalPos="239.98" arrivalSpeed="17.17" duration="41.00" routeLength="467.46" waitingTime="7.00" waitingCount="1" stopTime="0.00" timeLoss="13.89" rerouteNo="0" devices="tripinfo_veh2.1 routing_veh2.1" vType="veh_passenger" speedFactor="1.03" vaporized=""/>
    <tripinfo id="veh2" depart="137.00" departLane="665787524_0" departPos="5.10" departSpeed="16.90" departDelay="0.20" arrival="179.00" arrivalLane="795097767#0_0" arrivalPos="239.98" arrivalSpeed="16.42" duration="42.00" routeLength="467.46" waitingTime="5.00" waitingCount="1" stopTime="0.00" timeLoss="14.18" rerouteNo="0" devices="tripinfo_veh2 routing_veh2" vType="veh_passenger" speedFactor="1.01" vaporized=""/>
    <tripinfo id="veh2.2" depart="137.00" departLane="665787524_2" departPos="5.10" departSpeed="17.75" departDelay="0.20" arrival="179.00" arrivalLane="795097767#0_1" arrivalPos="239.98" arrivalSpeed="17.56" duration="42.00" routeLength="467.46" waitingTime="7.00" waitingCount="1" stopTime="0.00" timeLoss="14.92" rerouteNo="0" devices="tripinfo_veh2.2 routing_veh2.2" vType="veh_passenger" speedFactor="1.06" vaporized=""/>
    <tripinfo id="veh2.3" depart="138.00" departLane="665787524_1" departPos="5.10" departSpeed="15.35" departDelay="1.20" arrival="181.00" arrivalLane="795097767#0_1" arrivalPos="239.98" arrivalSpeed="14.78" duration="43.00" routeLength="467.46" waitingTime="6.00" waitingCount="1" stopTime="0.00" timeLoss="13.29" rerouteNo="0" devices="tripinfo_veh2.3 routing_veh2.3" vType="veh_passenger" speedFactor="0.96" vaporized=""/>
    <tripinfo id="veh2.4" depart="138.00" departLane="665787524_2" departPos="5.10" departSpeed="14.94" departDelay="1.20" arrival="182.00" arrivalLane="795097767#0_2" arrivalPos="239.98" arrivalSpeed="14.76" duration="44.00" routeLength="467.46" waitingTime="6.00" waitingCount="1" stopTime="0.00" timeLoss="13.78" rerouteNo="0" devices="tripinfo_veh2.4 routing_veh2.4" vType="veh_passenger" speedFactor="0.93" vaporized=""/>
    <tripinfo id="veh2.6" depart="139.00" departLane="665787524_1" departPos="5.10" departSpeed="13.35" departDelay="2.20" arrival="182.00" arrivalLane="795097767#0_1" arrivalPos="239.98" arrivalSpeed="17.25" duration="43.00" routeLength="467.46" waitingTime="4.00" waitingCount="1" stopTime="0.00" timeLoss="17.40" rerouteNo="0" devices="tripinfo_veh2.6 routing_veh2.6" vType="veh_passenger" speedFactor="1.10" vaporized=""/>
    <tripinfo id="veh2.5" depart="138.00" departLane="665787524_0" departPos="5.10" departSpeed="14.35" departDelay="1.20" arrival="183.00" arrivalLane="795097767#0_0" arrivalPos="239.98" arrivalSpeed="13.35" duration="45.00" routeLength="467.46" waitingTime="5.00" waitingCount="1" stopTime="0.00" timeLoss="12.40" rerouteNo="0" devices="tripinfo_veh2.5 routing_veh2.5" vType="veh_passenger" speedFactor="0.87" vaporized=""/>
    <tripinfo id="veh2.7" depart="139.00" departLane="665787524_2" departPos="5.10" departSpeed="11.93" departDelay="2.20" arrival="184.00" arrivalLane="795097767#0_2" arrivalPos="239.98" arrivalSpeed="16.08" duration="45.00" routeLength="467.46" waitingTime="4.00" waitingCount="1" stopTime="0.00" timeLoss="16.69" rerouteNo="0" devices="tripinfo_veh2.7 routing_veh2.7" vType="veh_passenger" speedFactor="1.01" vaporized=""/>
    <tripinfo id="veh2.8" depart="139.00" departLane="665787524_0" departPos="5.10" departSpeed="11.32" departDelay="2.20" arrival="185.00" arrivalLane="795097767#0_0" arrivalPos="239.98" arrivalSpeed="17.05" duration="46.00" routeLength="467.46" waitingTime="3.00" waitingCount="1" stopTime="0.00" timeLoss="19.66" rerouteNo="0" devices="tripinfo_veh2.8 routing_veh2.8" vType="veh_passenger" speedFactor="1.10" vaporized=""/>
    <tripinfo id="veh2.10" depart="140.00" departLane="665787524_2" departPos="5.10" departSpeed="8.59" departDelay="3.20" arrival="185.00" arrivalLane="795097767#0_2" arrivalPos="239.98" arrivalSpeed="18.35" duration="45.00" routeLength="467.46" waitingTime="4.00" waitingCount="1" stopTime="0.00" timeLoss="21.16" rerouteNo="0" devices="tripinfo_veh2.10 routing_veh2.10" vType="veh_passenger" speedFactor="1.18" vaporized=""/>
    <tripinfo id="veh2.9" depart="140.00" departLane="665787524_1" departPos="5.10" departSpeed="9.78" departDelay="3.20" arrival="186.00" arrivalLane="795097767#0_1" arrivalPos="239.98" arrivalSpeed="15.17" duration="46.00" routeLength="467.46" waitingTime="3.00" waitingCount="1" stopTime="0.00" timeLoss="14.63" rerouteNo="0" devices="tripinfo_veh2.9 routing_veh2.9" vType="veh_passenger" speedFactor="0.92" vaporized=""/>
    <tripinfo id="veh2.11" depart="140.00" departLane="665787524_0" departPos="5.10" departSpeed="7.91" departDelay="3.20" arrival="186.00" arrivalLane="795097767#0_0" arrivalPos="239.98" arrivalSpeed="15.65" duration="46.00" routeLength="467.46" waitingTime="2.00" waitingCount="1" stopTime="0.00" timeLoss="17.95" rerouteNo="0" devices="tripinfo_veh2.11 routing_veh2.11" vType="veh_passenger" speedFactor="1.00" vaporized=""/>
    <tripinfo id="veh2.12" depart="141.00" departLane="665787524_1" departPos="5.10" departSpeed="6.16" departDelay="4.20" arrival="187.00" arrivalLane="795097767#0_1" arrivalPos="239.98" arrivalSpeed="15.67" duration="46.00" routeLength="467.46" waitingTime="3.00" waitingCount="1" stopTime="0.00" timeLoss="17.52" rerouteNo="0" devices="tripinfo_veh2.12 routing_veh2.12" vType="veh_passenger" speedFactor="0.99" vaporized=""/>
    <tripinfo id="veh2.13" depart="141.00" departLane="665787524_2" departPos="5.10" departSpeed="4.31" departDelay="4.20" arrival="187.00" arrivalLane="795097767#0_2" arrivalPos="239.98" arrivalSpeed="17.26" duration="46.00" routeLength="467.46" waitingTime="3.00" waitingCount="1" stopTime="0.00" timeLoss="19.45" rerouteNo="0" devices="tripinfo_veh2.13 routing_veh2.13" vType="veh_passenger" speedFactor="1.07" vaporized=""/>
    <tripinfo id="veh2.14" depart="142.00" departLane="665787524_0" departPos="5.10" departSpeed="8.32" departDelay="5.20" arrival="188.00" arrivalLane="795097767#0_0" arrivalPos="239.98" arrivalSpeed="14.64" duration="46.00" routeLength="467.46" waitingTime="3.00" waitingCount="1" stopTime="0.00" timeLoss="15.90" rerouteNo="0" devices="tripinfo_veh2.14 routing_veh2.14" vType="veh_passenger" speedFactor="0.94" vaporized=""/>
    <tripinfo id="veh2.15" depart="143.00" departLane="665787524_1" departPos="5.10" departSpeed="6.70" departDelay="6.20" arrival="189.00" arrivalLane="795097767#0_1" arrivalPos="239.98" arrivalSpeed="16.95" duration="46.00" routeLength="467.46" waitingTime="3.00" waitingCount="1" stopTime="0.00" timeLoss="20.05" rerouteNo="0" devices="tripinfo_veh2.15 routing_veh2.15" vType="veh_passenger" speedFactor="1.10" vaporized=""/>
    <tripinfo id="veh2.16" depart="143.00" departLane="665787524_2" departPos="5.10" departSpeed="2.49" departDelay="6.20" arrival="189.00" arrivalLane="795097767#0_2" arrivalPos="239.98" arrivalSpeed="16.04" duration="46.00" routeLength="467.46" waitingTime="3.00" waitingCount="1" stopTime="0.00" timeLoss="18.30" rerouteNo="0" devices="tripinfo_veh2.16 routing_veh2.16" vType="veh_passenger" speedFactor="1.03" vaporized=""/>
    <tripinfo id="veh2.17" depart="144.00" departLane="665787524_0" departPos="5.10" departSpeed="8.83" departDelay="7.20" arrival="190.00" arrivalLane="795097767#0_0" arrivalPos="239.98" arrivalSpeed="16.39" duration="46.00" routeLength="467.46" waitingTime="1.00" waitingCount="1" stopTime="0.00" timeLoss="17.79" rerouteNo="0" devices="tripinfo_veh2.17 routing_veh2.17" vType="veh_passenger" speedFactor="1.02" vaporized=""/>
    <tripinfo id="veh2.18" depart="145.00" departLane="665787524_1" departPos="5.10" departSpeed="7.99" departDelay="8.20" arrival="191.00" arrivalLane="795097767#0_1" arrivalPos="239.98" arrivalSpeed="17.08" duration="46.00" routeLength="467.46" waitingTime="3.00" waitingCount="1" stopTime="0.00" timeLoss="18.61" rerouteNo="0" devices="tripinfo_veh2.18 routing_veh2.18" vType="veh_passenger" speedFactor="1.06" vaporized=""/>
    <tripinfo id="veh2.19" depart="145.00" departLane="665787524_0" departPos="5.10" departSpeed="4.67" departDelay="8.20" arrival="191.00" arrivalLane="795097767#0_0" arrivalPos="239.98" arrivalSpeed="19.09" duration="46.00" routeLength="467.46" waitingTime="0.00" waitingCount="0" stopTime="0.00" timeLoss="21.36" rerouteNo="0" devices="tripinfo_veh2.19 routing_veh2.19" vType="veh_passenger" speedFactor="1.15" vaporized=""/>
    <tripinfo id="veh2.20" depart="146.00" departLane="665787524_2" departPos="5.10" departSpeed="5.97" departDelay="9.20" arrival="191.00" arrivalLane="795097767#0_2" arrivalPos="239.98" arrivalSpeed="16.12" duration="45.00" routeLength="467.46" waitingTime="1.00" waitingCount="1" stopTime="0.00" timeLoss="16.97" rerouteNo="0" devices="tripinfo_veh2.20 routing_veh2.20" vType="veh_passenger" speedFactor="1.03" vaporized=""/>
    <tripinfo id="veh2.23" depart="148.00" departLane="665787524_2" departPos="5.10" departSpeed="5.78" departDelay="11.20" arrival="192.00" arrivalLane="795097767#0_2" arrivalPos="239.98" arrivalSpeed="16.67" duration="44.00" routeLength="467.46" waitingTime="1.00" waitingCount="1" stopTime="0.00" timeLoss="15.95" rerouteNo="0" devices="tripinfo_veh2.23 routing_veh2.23" vType="veh_passenger" speedFactor="1.01" vaporized=""/>
    <tripinfo id="veh2.22" depart="147.00" departLane="665787524_0" departPos="5.10" departSpeed="3.73" departDelay="10.20" arrival="193.00" arrivalLane="795097767#0_0" arrivalPos="239.98" arrivalSpeed="18.44" duration="46.00" routeLength="467.46" waitingTime="0.00" waitingCount="0" stopTime="0.00" timeLoss="20.28" rerouteNo="0" devices="tripinfo_veh2.22 routing_veh2.22" vType="veh_passenger" speedFactor="1.12" vaporized=""/>
    <tripinfo id="truck1" depart="103.00" departLane="-130048902#1_0" departPos="7.20" departSpeed="10.17" departDelay="0.40" arrival="194.00" arrivalLane="-665787530_0" arrivalPos="350.72" arrivalSpeed="10.03" duration="91.00" routeLength="729.26" waitingTime="10.00" waitingCount="1" stopTime="0.00" timeLoss="19.03" rerouteNo="0" devices="tripinfo_truck1 routing_truck1" vType="truck_truck" speedFactor="0.92" vaporized=""/>
    <tripinfo id="veh2.25" depart="150.00" departLane="665787524_2" departPos="5.10" departSpeed="6.43" departDelay="13.20" arrival="194.00" arrivalLane="795097767#0_2" arrivalPos="239.98" arrivalSpeed="16.52" duration="44.00" routeLength="467.46" waitingTime="0.00" waitingCount="0" stopTime="0.00" timeLoss="17.06" rerouteNo="0" devices="tripinfo_veh2.25 routing_veh2.25" vType="veh_passenger" speedFactor="1.07" vaporized=""/>
    <tripinfo id="veh2.26" depart="150.00" departLane="665787524_0" departPos="5.10" departSpeed="5.47" departDelay="13.20" arrival="195.00" arrivalLane="795097767#0_0" arrivalPos="239.98" arrivalSpeed="16.00" duration="45.00" routeLength="467.46" waitingTime="0.00" waitingCount="0" stopTime="0.00" timeLoss="15.11" rerouteNo="0" devices="tripinfo_veh2.26 routing_veh2.26" vType="veh_passenger" speedFactor="0.96" vaporized=""/>
    <tripinfo id="veh2.28" depart="152.00" departLane="665787524_2" departPos="5.10" departSpeed="7.56" departDelay="15.20" arrival="195.00" arrivalLane="795097767#0_2" arrivalPos="239.98" arrivalSpeed="19.33" duration="43.00" routeLength="467.46" waitingTime="0.00" waitingCount="0" stopTime="0.00" timeLoss="19.83" rerouteNo="0" devices="tripinfo_veh2.28 routing_veh2.28" vType="veh_passenger" speedFactor="1.23" vaporized=""/>
    <tripinfo id="veh2.21" depart="146.00" departLane="665787524_1" departPos="5.10" departSpeed="3.01" departDelay="9.20" arrival="196.00" arrivalLane="795097767#0_1" arrivalPos="239.98" arrivalSpeed="12.48" duration="50.00" routeLength="467.46" waitingTime="1.00" waitingCount="1" stopTime="0.00" timeLoss="15.24" rerouteNo="0" devices="tripinfo_veh2.21 routing_veh2.21" vType="veh_passenger" speedFactor="0.82" vaporized=""/>
    <tripinfo id="veh2.29" depart="152.00" departLane="665787524_0" departPos="5.10" departSpeed="4.61" departDelay="15.20" arrival="196.00" arrivalLane="795097767#0_0" arrivalPos="239.98" arrivalSpeed="15.63" duration="44.00" routeLength="467.46" waitingTime="0.00" waitingCount="0" stopTime="0.00" timeLoss="16.28" rerouteNo="0" devices="tripinfo_veh2.29 routing_veh2.29" vType="veh_passenger" speedFactor="1.01" vaporized=""/>
    <tripinfo id="veh2.24" depart="149.00" departLane="665787524_1" departPos="5.10" departSpeed="5.93" departDelay="12.20" arrival="197.00" arrivalLane="795097767#0_1" arrivalPos="239.98" arrivalSpeed="15.37" duration="48.00" routeLength="467.46" waitingTime="0.00" waitingCount="0" stopTime="0.00" timeLoss="20.78" rerouteNo="0" devices="tripinfo_veh2.24 routing_veh2.24" vType="veh_passenger" speedFactor="1.03" vaporized=""/>
    <tripinfo id="veh2.31" depart="154.00" departLane="665787524_2" departPos="5.10" departSpeed="8.97" departDelay="17.20" arrival="197.00" arrivalLane="795097767#0_2" arrivalPos="239.98" arrivalSpeed="16.49" duration="43.00" routeLength="467.46" waitingTime="0.00" waitingCount="0" stopTime="0.00" timeLoss="15.06" rerouteNo="0" devices="tripinfo_veh2.31 routing_veh2.31" vType="veh_passenger" speedFactor="1.02" vaporized=""/>
    <tripinfo id="veh2.32" depart="154.00" departLane="665787524_0" departPos="5.10" departSpeed="2.13" departDelay="17.20" arrival="198.00" arrivalLane="795097767#0_0" arrivalPos="239.98" arrivalSpeed="16.66" duration="44.00" routeLength="467.46" waitingTime="0.00" waitingCount="0" stopTime="0.00" timeLoss="15.65" rerouteNo="0" devices="tripinfo_veh2.32 routing_veh2.32" vType="veh_passenger" speedFactor="1.00" vaporized=""/>
    <tripinfo id="veh2.27" depart="151.00" departLane="665787524_1" departPos="5.10" departSpeed="5.19" departDelay="14.20" arrival="199.00" arrivalLane="795097767#0_1" arrivalPos="239.98" arrivalSpeed="16.08" duration="48.00" routeLength="467.46" waitingTime="0.00" waitingCount="0" stopTime="0.00" timeLoss="20.61" rerouteNo="0" devices="tripinfo_veh2.27 routing_veh2.27" vType="veh_passenger" speedFactor="1.04" vaporized=""/>
    <tripinfo id="veh2.34" depart="155.00" departLane="665787524_2" departPos="5.10" departSpeed="4.73" departDelay="18.20" arrival="199.00" arrivalLane="795097767#0_2" arrivalPos="239.98" arrivalSpeed="18.23" duration="44.00" routeLength="467.46" waitingTime="0.00" waitingCount="0" stopTime="0.00" timeLoss="18.03" rerouteNo="0" devices="tripinfo_veh2.34 routing_veh2.34" vType="veh_passenger" speedFactor="1.11" vaporized=""/>
    <tripinfo id="veh2.36" depart="157.00" departLane="665787524_0" departPos="5.10" departSpeed="5.65" departDelay="20.20" arrival="200.00" arrivalLane="795097767#0_0" arrivalPos="239.98" arrivalSpeed="14.62" duration="43.00" routeLength="467.46" waitingTime="0.00" waitingCount="0" stopTime="0.00" timeLoss="12.63" rerouteNo="0" devices="tripinfo_veh2.36 routing_veh2.36" vType="veh_passenger" speedFactor="0.94" vaporized=""/>
    <tripinfo id="veh2.37" depart="157.00" departLane="665787524_2" departPos="5.10" departSpeed="3.21" departDelay="20.20" arrival="200.00" arrivalLane="795097767#0_2" arrivalPos="239.98" arrivalSpeed="18.03" duration="43.00" routeLength="467.46" waitingTime="0.00" waitingCount="0" stopTime="0.00" timeLoss="17.96" rerouteNo="0" devices="tripinfo_veh2.37 routing_veh2.37" vType="veh_passenger" speedFactor="1.13" vaporized=""/>
    <tripinfo id="veh2.30" depart="153.00" departLane="665787524_1" departPos="5.10" departSpeed="5.74" departDelay="16.20" arrival="201.00" arrivalLane="795097767#0_1" arrivalPos="239.98" arrivalSpeed="17.65" duration="48.00" routeLength="467.46" waitingTime="0.00" waitingCount="0" stopTime="0.00" timeLoss="22.28" rerouteNo="0" devices="tripinfo_veh2.30 routing_veh2.30" vType="veh_passenger" speedFactor="1.12" vaporized=""/>
    <tripinfo id="veh2.39" depart="159.00" departLane="665787524_0" departPos="5.10" departSpeed="5.54" departDelay="22.20" arrival="201.00" arrivalLane="795097767#0_0" arrivalPos="239.98" arrivalSpeed="17.41" duration="42.00" routeLength="467.46" waitingTime="0.00" waitingCount="0" stopTime="0.00" timeLoss="17.42" rerouteNo="0" devices="tripinfo_veh2.39 routing_veh2.39" vType="veh_passenger" speedFactor="1.14" vaporized=""/>
    <tripinfo id="veh2.33" depart="155.00" departLane="665787524_1" departPos="5.10" departSpeed="6.28" departDelay="18.20" arrival="202.00" arrivalLane="795097767#0_2" arrivalPos="239.98" arrivalSpeed="14.86" duration="47.00" routeLength="467.46" waitingTime="0.00" waitingCount="0" stopTime="0.00" timeLoss="17.19" rerouteNo="0" devices="tripinfo_veh2.33 routing_veh2.33" vType="veh_passenger" speedFactor="0.95" vaporized=""/>
    <tripinfo id="veh2.35" depart="157.00" departLane="665787524_1" departPos="5.10" departSpeed="7.49" departDelay="20.20" arrival="203.00" arrivalLane="795097767#0_1" arrivalPos="239.98" arrivalSpeed="18.58" duration="46.00" routeLength="467.46" waitingTime="0.00" waitingCount="0" stopTime="0.00" timeLoss="21.08" rerouteNo="0" devices="tripinfo_veh2.35 routing_veh2.35" vType="veh_passenger" speedFactor="1.16" vaporized=""/>
    <tripinfo id="veh2.42" depart="161.00" departLane="665787524_0" departPos="5.10" departSpeed="4.47" departDelay="24.20" arrival="203.00" arrivalLane="795097767#0_0" arrivalPos="239.98" arrivalSpeed="15.18" duration="42.00" routeLength="467.46" waitingTime="0.00" waitingCount="0" stopTime="0.00" timeLoss="12.72" rerouteNo="0" devices="tripinfo_veh2.42 routing_veh2.42" vType="veh_passenger" speedFactor="0.97" vaporized=""/>
    <tripinfo id="veh2.40" depart="160.00" departLane="665787524_2" departPos="5.10" departSpeed="6.17" departDelay="23.20" arrival="205.00" arrivalLane="795097767#0_2" arrivalPos="239.98" arrivalSpeed="14.37" duration="45.00" routeLength="467.46" waitingTime="0.00" waitingCount="0" stopTime="0.00" timeLoss="13.23" rerouteNo="0" devices="tripinfo_veh2.40 routing_veh2.40" vType="veh_passenger" speedFactor="0.89" vaporized=""/>
    <tripinfo id="veh2.45" depart="163.00" departLane="665787524_0" departPos="5.10" departSpeed="4.13" departDelay="26.20" arrival="205.00" arrivalLane="795097767#0_0" arrivalPos="239.98" arrivalSpeed="15.95" duration="42.00" routeLength="467.46" waitingTime="0.00" waitingCount="0" stopTime="0.00" timeLoss="13.45" rerouteNo="0" devices="tripinfo_veh2.45 routing_veh2.45" vType="veh_passenger" speedFactor="1.00" vaporized=""/>
    <tripinfo id="veh2.48" depart="165.00" departLane="665787524_0" departPos="5.10" departSpeed="3.08" departDelay="28.20" arrival="206.00" arrivalLane="795097767#0_0" arrivalPos="239.98" arrivalSpeed="17.53" duration="41.00" routeLength="467.46" waitingTime="0.00" waitingCount="0" stopTime="0.00" timeLoss="14.44" rerouteNo="0" devices="tripinfo_veh2.48 routing_veh2.48" vType="veh_passenger" speedFactor="1.06" vaporized=""/>
    <tripinfo id="veh2.43" depart="162.00" departLane="665787524_2" departPos="5.10" departSpeed="5.99" departDelay="25.20" arrival="207.00" arrivalLane="795097767#0_2" arrivalPos="239.98" arrivalSpeed="16.31" duration="45.00" routeLength="467.46" waitingTime="0.00" waitingCount="0" stopTime="0.00" timeLoss="17.50" rerouteNo="0" devices="tripinfo_veh2.43 routing_veh2.43" vType="veh_passenger" speedFactor="1.04" vaporized=""/>
    <tripinfo id="veh2.46" depart="164.00" departLane="665787524_2" departPos="5.10" departSpeed="6.93" departDelay="27.20" arrival="208.00" arrivalLane="795097767#0_2" arrivalPos="239.98" arrivalSpeed="16.98" duration="44.00" routeLength="467.46" waitingTime="0.00" waitingCount="0" stopTime="0.00" timeLoss="17.83" rerouteNo="0" devices="tripinfo_veh2.46 routing_veh2.46" vType="veh_passenger" speedFactor="1.07" vaporized=""/>
    <tripinfo id="veh2.51" depart="167.00" departLane="665787524_0" departPos="5.10" departSpeed="1.26" departDelay="30.20" arrival="208.00" arrivalLane="795097767#0_0" arrivalPos="239.98" arrivalSpeed="17.92" duration="41.00" routeLength="467.46" waitingTime="0.00" waitingCount="0" stopTime="0.00" timeLoss="14.37" rerouteNo="0" devices="tripinfo_veh2.51 routing_veh2.51" vType="veh_passenger" speedFactor="1.08" vaporized=""/>
    <tripinfo id="veh2.55" depart="170.00" departLane="665787524_0" departPos="5.10" departSpeed="1.19" departDelay="33.20" arrival="209.00" arrivalLane="795097767#0_0" arrivalPos="239.98" arrivalSpeed="17.63" duration="39.00" routeLength="467.46" waitingTime="0.00" waitingCount="0" stopTime="0.00" timeLoss="12.87" rerouteNo="0" devices="tripinfo_veh2.55 routing_veh2.55" vType="veh_passenger" speedFactor="1.08" vaporized=""/>
    <tripinfo id="veh2.38" depart="159.00" departLane="665787524_1" departPos="5.10" departSpeed="7.78" departDelay="22.20" arrival="210.00" arrivalLane="795097767#0_0" arrivalPos="239.98" arrivalSpeed="12.23" duration="51.00" routeLength="467.46" waitingTime="0.00" waitingCount="0" stopTime="0.00" timeLoss="12.23" rerouteNo="0" devices="tripinfo_veh2.38 routing_veh2.38" vType="veh_passenger" speedFactor="0.73" vaporized=""/>
    <tripinfo id="veh2.49" depart="166.00" departLane="665787524_2" departPos="5.10" departSpeed="7.76" departDelay="29.20" arrival="210.00" arrivalLane="795097767#0_2" arrivalPos="239.98" arrivalSpeed="18.57" duration="44.00" routeLength="467.46" waitingTime="0.00" waitingCount="0" stopTime="0.00" timeLoss="18.58" rerouteNo="0" devices="tripinfo_veh2.49 routing_veh2.49" vType="veh_passenger" speedFactor="1.12" vaporized=""/>
    <tripinfo id="veh2.41" depart="161.00" departLane="665787524_1" departPos="5.10" departSpeed="8.33" departDelay="24.20" arrival="211.00" arrivalLane="795097767#0_1" arrivalPos="239.98" arrivalSpeed="16.27" duration="50.00" routeLength="467.46" waitingTime="0.00" waitingCount="0" stopTime="0.00" timeLoss="21.75" rerouteNo="0" devices="tripinfo_veh2.41 routing_veh2.41" vType="veh_passenger" speedFactor="1.00" vaporized=""/>
    <tripinfo id="veh2.52" depart="168.00" departLane="665787524_2" departPos="5.10" departSpeed="8.05" departDelay="31.20" arrival="212.00" arrivalLane="795097767#0_2" arrivalPos="239.98" arrivalSpeed="14.65" duration="44.00" routeLength="467.46" waitingTime="0.00" waitingCount="0" stopTime="0.00" timeLoss="12.85" rerouteNo="0" devices="tripinfo_veh2.52 routing_veh2.52" vType="veh_passenger" speedFactor="0.91" vaporized=""/>
    <tripinfo id="veh2.59" depart="173.00" departLane="665787524_0" departPos="5.10" departSpeed="0.19" departDelay="36.20" arrival="212.00" arrivalLane="795097767#0_0" arrivalPos="239.98" arrivalSpeed="14.59" duration="39.00" routeLength="467.46" waitingTime="0.00" waitingCount="0" stopTime="0.00" timeLoss="7.93" rerouteNo="0" devices="tripinfo_veh2.59 routing_veh2.59" vType="veh_passenger" speedFactor="0.91" vaporized=""/>
    <tripinfo id="veh2.44" depart="163.00" departLane="665787524_1" departPos="5.10" departSpeed="9.12" departDelay="26.20" arrival="213.00" arrivalLane="795097767#0_1" arrivalPos="239.98" arrivalSpeed="14.79" duration="50.00" routeLength="467.46" waitingTime="0.00" waitingCount="0" stopTime="0.00" timeLoss="20.34" rerouteNo="0" devices="tripinfo_veh2.44 routing_veh2.44" vType="veh_passenger" speedFactor="0.96" vaporized=""/>
    <tripinfo id="veh2.63" depart="177.00" departLane="665787524_0" departPos="5.10" departSpeed="4.84" departDelay="40.20" arrival="214.00" arrivalLane="795097767#0_0" arrivalPos="239.98" arrivalSpeed="14.73" duration="37.00" routeLength="467.46" waitingTime="0.00" waitingCount="0" stopTime="0.00" timeLoss="6.40" rerouteNo="0" devices="tripinfo_veh2.63 routing_veh2.63" vType="veh_passenger" speedFactor="0.94" vaporized=""/>
    <tripinfo id="veh2.47" depart="164.00" departLane="665787524_1" departPos="5.10" departSpeed="4.25" departDelay="27.20" arrival="215.00" arrivalLane="795097767#0_1" arrivalPos="239.98" arrivalSpeed="15.17" duration="51.00" routeLength="467.46" waitingTime="0.00" waitingCount="0" stopTime="0.00" timeLoss="19.89" rerouteNo="0" devices="tripinfo_veh2.47 routing_veh2.47" vType="veh_passenger" speedFactor="0.93" vaporized=""/>
    <tripinfo id="veh2.54" depart="170.00" departLane="665787524_2" departPos="5.10" departSpeed="8.75" departDelay="33.20" arrival="215.00" arrivalLane="795097767#0_2" arrivalPos="239.98" arrivalSpeed="13.52" duration="45.00" routeLength="467.46" waitingTime="0.00" waitingCount="0" stopTime="0.00" timeLoss="12.22" rerouteNo="0" devices="tripinfo_veh2.54 routing_veh2.54" vType="veh_passenger" speedFactor="0.88" vaporized=""/>
    <tripinfo id="veh2.50" depart="166.00" departLane="665787524_1" departPos="5.10" departSpeed="2.60" departDelay="29.20" arrival="216.00" arrivalLane="795097767#0_1" arrivalPos="239.98" arrivalSpeed="16.57" duration="50.00" routeLength="467.46" waitingTime="0.00" waitingCount="0" stopTime="0.00" timeLoss="25.96" rerouteNo="0" devices="tripinfo_veh2.50 routing_veh2.50" vType="veh_passenger" speedFactor="1.18" vaporized=""/>
    <tripinfo id="veh2.56" depart="171.00" departLane="665787524_2" departPos="5.10" departSpeed="4.22" departDelay="34.20" arrival="216.00" arrivalLane="795097767#0_2" arrivalPos="239.98" arrivalSpeed="15.06" duration="45.00" routeLength="467.46" waitingTime="0.00" waitingCount="0" stopTime="0.00" timeLoss="16.50" rerouteNo="0" devices="tripinfo_veh2.56 routing_veh2.56" vType="veh_passenger" speedFactor="0.99" vaporized=""/>
    <tripinfo id="veh2.65" depart="179.00" departLane="665787524_0" departPos="5.10" departSpeed="5.18" departDelay="42.20" arrival="216.00" arrivalLane="795097767#0_0" arrivalPos="239.98" arrivalSpeed="13.71" duration="37.00" routeLength="467.46" waitingTime="0.00" waitingCount="0" stopTime="0.00" timeLoss="5.06" rerouteNo="0" devices="tripinfo_veh2.65 routing_veh2.65" vType="veh_passenger" speedFactor="0.90" vaporized=""/>
    <tripinfo id="veh2.68" depart="181.00" departLane="665787524_0" departPos="5.10" departSpeed="5.70" departDelay="44.20" arrival="217.00" arrivalLane="795097767#0_0" arrivalPos="239.98" arrivalSpeed="15.52" duration="36.00" routeLength="467.46" waitingTime="0.00" waitingCount="0" stopTime="0.00" timeLoss="6.62" rerouteNo="0" devices="tripinfo_veh2.68 routing_veh2.68" vType="veh_passenger" speedFactor="0.96" vaporized=""/>